       N       E                     dE             d eps       ncg     rms          rms(c)
DAV:   1     0.478617975986E+03    0.47862E+03   -0.17259E+04   128   0.551E+02
DAV:   2     0.899549291377E+02   -0.38866E+03   -0.37893E+03   160   0.168E+02
DAV:   3    -0.541180580346E+02   -0.14407E+03   -0.13926E+03   152   0.898E+01
DAV:   4    -0.773431401056E+02   -0.23225E+02   -0.21797E+02   144   0.350E+01
DAV:   5    -0.794155841268E+02   -0.20724E+01   -0.19630E+01   152   0.102E+01    0.431E+01
DAV:   6    -0.320209430123E+02    0.47395E+02   -0.51411E+02   120   0.797E+01    0.181E+01
DAV:   7    -0.216999131280E+02    0.10321E+02   -0.12420E+02   136   0.360E+01    0.126E+01
DAV:   8    -0.193346014947E+02    0.23653E+01   -0.33815E+01   152   0.199E+01    0.123E+01
DAV:   9    -0.183334583514E+02    0.10011E+01   -0.23099E+01   152   0.157E+01    0.679E+00
DAV:  10    -0.175625766090E+02    0.77088E+00   -0.56491E+00   136   0.672E+00    0.479E+00
DAV:  11    -0.173708075381E+02    0.19177E+00   -0.12717E+00   136   0.371E+00    0.269E+00
DAV:  12    -0.174581093495E+02   -0.87302E-01   -0.25413E+00   152   0.538E+00    0.347E+00
DAV:  13    -0.172780462443E+02    0.18006E+00   -0.14179E+00   152   0.650E+00    0.981E-01
DAV:  14    -0.172672771331E+02    0.10769E-01   -0.17670E-01   136   0.138E+00    0.461E-01
DAV:  15    -0.172683557631E+02   -0.10786E-02   -0.24203E-02   136   0.493E-01    0.294E-01
DAV:  16    -0.172729622835E+02   -0.46065E-02   -0.73649E-03   120   0.354E-01    0.155E-01
DAV:  17    -0.172785248936E+02   -0.55626E-02   -0.75040E-03   144   0.209E-01    0.173E-01
DAV:  18    -0.172815342926E+02   -0.30094E-02   -0.63299E-03   136   0.122E-01    0.133E-01
DAV:  19    -0.172864675597E+02   -0.49333E-02   -0.32561E-03   112   0.104E-01    0.836E-02
DAV:  20    -0.172917108361E+02   -0.52433E-02   -0.11387E-03   112   0.103E-01    0.608E-02
DAV:  21    -0.172948356921E+02   -0.31249E-02   -0.10344E-03   104   0.641E-02    0.419E-02
DAV:  22    -0.172970000499E+02   -0.21644E-02   -0.28006E-04    80   0.445E-02    0.208E-02
DAV:  23    -0.172992337509E+02   -0.22337E-02   -0.24648E-04    88   0.353E-02    0.149E-02
DAV:  24    -0.173003835043E+02   -0.11498E-02   -0.61261E-05    80   0.263E-02    0.883E-03
DAV:  25    -0.173011868737E+02   -0.80337E-03   -0.55855E-05    80   0.167E-02    0.572E-03
DAV:  26    -0.173017010997E+02   -0.51423E-03   -0.37994E-05    80   0.139E-02    0.278E-03
DAV:  27    -0.173019525128E+02   -0.25141E-03   -0.23297E-05    80   0.111E-02    0.282E-03
DAV:  28    -0.173020281822E+02   -0.75669E-04   -0.85565E-06    72   0.725E-03
   1 F= -.17302028E+02 E0= -.17259628E+02  d E =-.173020E+02
       N       E                     dE             d eps       ncg     rms          rms(c)
DAV:   1     0.102214476569E+03    0.11952E+03   -0.91652E+03   104   0.570E+02    0.320E+01
DAV:   2    -0.480247598550E+02   -0.15024E+03   -0.19361E+03   152   0.162E+02    0.376E+01
DAV:   3    -0.543992821923E+02   -0.63745E+01   -0.60830E+02   176   0.107E+02    0.268E+01
DAV:   4    -0.367402430585E+02    0.17659E+02   -0.66774E+01   152   0.208E+01    0.198E+01
DAV:   5    -0.313434885725E+02    0.53968E+01   -0.32580E+01   168   0.115E+01    0.158E+01
DAV:   6    -0.349467085349E+02   -0.36032E+01   -0.80810E+01   160   0.121E+01    0.340E+01
DAV:   7    -0.269956215524E+02    0.79511E+01   -0.55568E+01   144   0.157E+01    0.905E+00
DAV:   8    -0.277676822543E+02   -0.77206E+00   -0.29159E+01   144   0.702E+00    0.884E+00
DAV:   9    -0.285106334847E+02   -0.74295E+00   -0.20397E+01   144   0.654E+00    0.237E+01
DAV:  10    -0.271337166861E+02    0.13769E+01   -0.29264E+01   144   0.667E+00    0.890E+00
DAV:  11    -0.266140347156E+02    0.51968E+00   -0.22861E+00   144   0.320E+00    0.442E+00
DAV:  12    -0.267367792828E+02   -0.12274E+00   -0.26345E+00   152   0.265E+00    0.692E+00
DAV:  13    -0.266080567292E+02    0.12872E+00   -0.42824E-01   144   0.165E+00    0.605E+00
DAV:  14    -0.264668111425E+02    0.14125E+00   -0.31636E-01   144   0.125E+00    0.441E+00
DAV:  15    -0.264013567501E+02    0.65454E-01   -0.48074E-01   152   0.118E+00    0.179E+00
DAV:  16    -0.263880878908E+02    0.13269E-01   -0.19825E-02   144   0.578E-01    0.148E+00
DAV:  17    -0.263944324177E+02   -0.63445E-02   -0.24789E-02   152   0.305E-01    0.159E+00
DAV:  18    -0.263942661495E+02    0.16627E-03   -0.40948E-02   144   0.246E-01    0.891E-01
DAV:  19    -0.263990846796E+02   -0.48185E-02   -0.82842E-03   144   0.159E-01    0.713E-01
DAV:  20    -0.264179149556E+02   -0.18830E-01   -0.23291E-02   120   0.318E-01    0.590E-01
DAV:  21    -0.264259717563E+02   -0.80568E-02   -0.25815E-02   144   0.284E-01    0.966E-01
DAV:  22    -0.264282696460E+02   -0.22979E-02   -0.13535E-02   120   0.179E-01    0.117E+00
DAV:  23    -0.264286315175E+02   -0.36187E-03   -0.74361E-03   144   0.160E-01    0.542E-01
DAV:  24    -0.264290074860E+02   -0.37597E-03   -0.65526E-03   152   0.175E-01    0.158E-01
DAV:  25    -0.264304164686E+02   -0.14090E-02   -0.79774E-04   104   0.989E-02    0.495E-02
DAV:  26    -0.264310086998E+02   -0.59223E-03   -0.23217E-04    96   0.452E-02    0.397E-02
DAV:  27    -0.264317878852E+02   -0.77919E-03   -0.33240E-04    96   0.392E-02    0.662E-02
DAV:  28    -0.264320098566E+02   -0.22197E-03   -0.24764E-04    72   0.360E-02    0.548E-02
DAV:  29    -0.264324916187E+02   -0.48176E-03   -0.15514E-04    80   0.309E-02    0.387E-02
DAV:  30    -0.264327736719E+02   -0.28205E-03   -0.10978E-04    72   0.208E-02    0.241E-02
DAV:  31    -0.264329070805E+02   -0.13341E-03   -0.25286E-05    72   0.129E-02    0.181E-02
DAV:  32    -0.264331003173E+02   -0.19324E-03   -0.34962E-05    72   0.144E-02    0.240E-02
DAV:  33    -0.264331665307E+02   -0.66213E-04   -0.21441E-05    72   0.104E-02
   2 F= -.26433167E+02 E0= -.26319335E+02  d E =-.913114E+01
       N       E                     dE             d eps       ncg     rms          rms(c)
DAV:   1    -0.370471234402E+02   -0.10614E+02   -0.15272E+03   104   0.250E+02    0.221E+01
DAV:   2    -0.650948277416E+02   -0.28048E+02   -0.47076E+02   144   0.898E+01    0.233E+01
DAV:   3    -0.505230992460E+02    0.14572E+02   -0.98024E+01   152   0.382E+01    0.156E+01
DAV:   4    -0.506590952597E+02   -0.13600E+00   -0.35141E+01   168   0.113E+01    0.220E+01
DAV:   5    -0.514142295117E+02   -0.75513E+00   -0.65884E+01   152   0.171E+01    0.136E+01
DAV:   6    -0.496132958712E+02    0.18009E+01   -0.21427E+01   152   0.722E+00    0.116E+01
DAV:   7    -0.482917572469E+02    0.13215E+01   -0.15722E+01   152   0.590E+00    0.553E+00
DAV:   8    -0.487255771311E+02   -0.43382E+00   -0.89044E+00   168   0.517E+00    0.159E+01
DAV:   9    -0.481607321049E+02    0.56485E+00   -0.98779E+00   144   0.504E+00    0.543E+00
DAV:  10    -0.481598219989E+02    0.91011E-03   -0.26281E+00   152   0.309E+00    0.412E+00
DAV:  11    -0.480754678994E+02    0.84354E-01   -0.17444E+00   152   0.210E+00    0.264E+00
DAV:  12    -0.481475798446E+02   -0.72112E-01   -0.11188E+00   152   0.153E+00    0.394E+00
DAV:  13    -0.481199520872E+02    0.27628E-01   -0.14981E-01   152   0.926E-01    0.317E+00
DAV:  14    -0.481078775156E+02    0.12075E-01   -0.42979E-02   152   0.572E-01    0.290E+00
DAV:  15    -0.480837398483E+02    0.24138E-01   -0.71698E-02   152   0.476E-01    0.146E+00
DAV:  16    -0.480839781007E+02   -0.23825E-03   -0.98053E-03   160   0.248E-01    0.124E+00
DAV:  17    -0.480832663591E+02    0.71174E-03   -0.28774E-02   152   0.254E-01    0.510E-01
DAV:  18    -0.480813468285E+02    0.19195E-02   -0.17619E-03   144   0.122E-01    0.432E-01
DAV:  19    -0.480922944628E+02   -0.10948E-01   -0.11431E-02   128   0.256E-01    0.356E-01
DAV:  20    -0.480938130990E+02   -0.15186E-02   -0.38785E-03   152   0.156E-01    0.108E-01
DAV:  21    -0.480941985123E+02   -0.38541E-03   -0.95522E-04   128   0.942E-02    0.120E-01
DAV:  22    -0.480948477233E+02   -0.64921E-03   -0.25366E-04    96   0.472E-02    0.798E-02
DAV:  23    -0.480953502529E+02   -0.50253E-03   -0.20936E-04    88   0.447E-02    0.599E-02
DAV:  24    -0.480957713673E+02   -0.42111E-03   -0.10775E-04    96   0.349E-02    0.279E-02
DAV:  25    -0.480959693337E+02   -0.19797E-03   -0.28533E-05    72   0.181E-02    0.402E-02
DAV:  26    -0.480961688957E+02   -0.19956E-03   -0.31954E-05    72   0.154E-02    0.241E-02
DAV:  27    -0.480963547924E+02   -0.18590E-03   -0.43908E-05    80   0.127E-02    0.740E-03
DAV:  28    -0.480963816006E+02   -0.26808E-04   -0.10238E-05    72   0.970E-03
   3 F= -.48096382E+02 E0= -.47996391E+02  d E =-.307944E+02
       N       E                     dE             d eps       ncg     rms          rms(c)
DAV:   1    -0.399503115113E+02    0.81460E+01   -0.18656E+03   112   0.263E+02    0.174E+01
DAV:   2    -0.809422749010E+02   -0.40992E+02   -0.53892E+02   160   0.817E+01    0.379E+01
DAV:   3    -0.643747149950E+02    0.16568E+02   -0.17825E+02   152   0.617E+01    0.184E+01
DAV:   4    -0.574672732739E+02    0.69074E+01   -0.22509E+01   144   0.140E+01    0.136E+01
DAV:   5    -0.555476325589E+02    0.19196E+01   -0.73177E+00   160   0.601E+00    0.109E+01
DAV:   6    -0.546386794116E+02    0.90895E+00   -0.23322E+01   152   0.102E+01    0.110E+01
DAV:   7    -0.536172868930E+02    0.10214E+01   -0.77177E+00   144   0.589E+00    0.535E+00
DAV:   8    -0.539130724747E+02   -0.29579E+00   -0.60705E+00   152   0.344E+00    0.863E+00
DAV:   9    -0.535831289506E+02    0.32994E+00   -0.81866E+00   168   0.553E+00    0.459E+00
DAV:  10    -0.539404422972E+02   -0.35731E+00   -0.63085E+00   144   0.696E+00    0.102E+01
DAV:  11    -0.535402957136E+02    0.40015E+00   -0.76257E+00   160   0.521E+00    0.411E+00
DAV:  12    -0.534966234468E+02    0.43672E-01   -0.67896E-01   152   0.157E+00    0.358E+00
DAV:  13    -0.533931595000E+02    0.10346E+00   -0.40874E-01   144   0.169E+00    0.103E+00
DAV:  14    -0.534092486605E+02   -0.16089E-01   -0.59499E-02   144   0.548E-01    0.125E+00
DAV:  15    -0.534109047913E+02   -0.16561E-02   -0.17542E-02   152   0.319E-01    0.979E-01
DAV:  16    -0.534110337206E+02   -0.12893E-03   -0.12998E-02   152   0.213E-01    0.539E-01
DAV:  17    -0.534119407999E+02   -0.90708E-03   -0.18949E-02   144   0.264E-01    0.230E-01
DAV:  18    -0.534126193915E+02   -0.67859E-03   -0.11352E-03   128   0.101E-01    0.156E-01
DAV:  19    -0.534142661281E+02   -0.16467E-02   -0.31806E-03   128   0.102E-01    0.156E-01
DAV:  20    -0.534150668081E+02   -0.80068E-03   -0.40760E-04    80   0.558E-02    0.131E-01
DAV:  21    -0.534154139250E+02   -0.34712E-03   -0.59004E-04   112   0.375E-02    0.372E-02
DAV:  22    -0.534158874491E+02   -0.47352E-03   -0.22149E-04    72   0.368E-02    0.309E-02
DAV:  23    -0.534164542016E+02   -0.56675E-03   -0.56658E-04   112   0.374E-02    0.109E-01
DAV:  24    -0.534166890378E+02   -0.23484E-03   -0.18743E-04    80   0.344E-02    0.498E-02
DAV:  25    -0.534169116554E+02   -0.22262E-03   -0.63200E-05    72   0.202E-02    0.283E-02
DAV:  26    -0.534170327298E+02   -0.12107E-03   -0.50430E-05    72   0.210E-02    0.180E-02
DAV:  27    -0.534172125943E+02   -0.17986E-03   -0.15905E-04    88   0.242E-02    0.127E-02
DAV:  28    -0.534172548504E+02   -0.42256E-04   -0.24785E-05    72   0.127E-02
   4 F= -.53417255E+02 E0= -.53287556E+02  d E =-.532087E+01
       N       E                     dE             d eps       ncg     rms          rms(c)
DAV:   1    -0.534218302312E+02   -0.46176E-02   -0.21124E-01    96   0.285E+00    0.239E-01
DAV:   2    -0.534498033756E+02   -0.27973E-01   -0.22113E-01   152   0.102E+00    0.212E+00
DAV:   3    -0.534166223120E+02    0.33181E-01   -0.15859E-01   152   0.848E-01    0.216E-01
DAV:   4    -0.534224322790E+02   -0.58100E-02   -0.14289E-02   160   0.286E-01    0.166E-01
DAV:   5    -0.534225747496E+02   -0.14247E-03   -0.43826E-03   136   0.124E-01    0.131E-01
DAV:   6    -0.534224471413E+02    0.12761E-03   -0.19147E-03   120   0.642E-02    0.635E-02
DAV:   7    -0.534225135601E+02   -0.66419E-04   -0.84366E-04    72   0.528E-02
   5 F= -.53422514E+02 E0= -.53292493E+02  d E =-.532613E+01
       N       E                     dE             d eps       ncg     rms          rms(c)
DAV:   1    -0.536626686912E+02   -0.24022E+00   -0.41215E+02    96   0.138E+02    0.714E+00
DAV:   2    -0.587866671079E+02   -0.51240E+01   -0.61129E+01   136   0.330E+01    0.989E+00
DAV:   3    -0.573827238198E+02    0.14039E+01   -0.20816E+01   168   0.112E+01    0.602E+00
DAV:   4    -0.571830356852E+02    0.19969E+00   -0.93003E+00   136   0.536E+00    0.464E+00
DAV:   5    -0.569013515172E+02    0.28168E+00   -0.27691E+00   144   0.317E+00    0.445E+00
DAV:   6    -0.568326431966E+02    0.68708E-01   -0.36299E+00   152   0.343E+00    0.310E+00
DAV:   7    -0.567741422630E+02    0.58501E-01   -0.13260E+00   160   0.395E+00    0.244E+00
DAV:   8    -0.567754972038E+02   -0.13549E-02   -0.11714E+00   152   0.206E+00    0.192E+00
DAV:   9    -0.567322544141E+02    0.43243E-01   -0.38658E-01   160   0.110E+00    0.978E-01
DAV:  10    -0.567264806316E+02    0.57738E-02   -0.14323E-01   144   0.618E-01    0.449E-01
DAV:  11    -0.567265094857E+02   -0.28854E-04   -0.35343E-02   144   0.429E-01    0.318E-01
DAV:  12    -0.567269015313E+02   -0.39205E-03   -0.14981E-02   152   0.467E-01    0.285E-01
DAV:  13    -0.567265284054E+02    0.37313E-03   -0.10821E-02   136   0.445E-01    0.116E-01
DAV:  14    -0.567268658435E+02   -0.33744E-03   -0.18395E-03   128   0.134E-01    0.463E-02
DAV:  15    -0.567272053183E+02   -0.33947E-03   -0.17592E-04    72   0.519E-02    0.238E-02
DAV:  16    -0.567275301863E+02   -0.32487E-03   -0.97895E-05    72   0.347E-02    0.116E-02
DAV:  17    -0.567277743643E+02   -0.24418E-03   -0.51782E-05    56   0.251E-02    0.966E-03
DAV:  18    -0.567280853137E+02   -0.31095E-03   -0.57659E-05    56   0.190E-02    0.723E-03
DAV:  19    -0.567282334917E+02   -0.14818E-03   -0.31069E-05    48   0.141E-02    0.377E-03
DAV:  20    -0.567284128348E+02   -0.17934E-03   -0.37077E-05    56   0.125E-02    0.297E-03
DAV:  21    -0.567284904572E+02   -0.77622E-04   -0.23543E-05    48   0.108E-02
   6 F= -.56728490E+02 E0= -.56607178E+02  d E =-.330598E+01
       N       E                     dE             d eps       ncg     rms          rms(c)
DAV:   1    -0.567337752219E+02   -0.53624E-02   -0.38858E+01    96   0.448E+01    0.262E+00
DAV:   2    -0.582293854175E+02   -0.14956E+01   -0.15252E+01   144   0.109E+01    0.765E+00
DAV:   3    -0.569949272016E+02    0.12345E+01   -0.57955E+00   136   0.580E+00    0.214E+00
DAV:   4    -0.570129437603E+02   -0.18017E-01   -0.13508E+00   168   0.234E+00    0.222E+00
DAV:   5    -0.569670512897E+02    0.45892E-01   -0.54218E-01   152   0.176E+00    0.104E+00
DAV:   6    -0.569738266494E+02   -0.67754E-02   -0.33428E-01   152   0.124E+00    0.140E+00
DAV:   7    -0.569658332706E+02    0.79934E-02   -0.29393E-01   152   0.922E-01    0.785E-01
DAV:   8    -0.569577108221E+02    0.81224E-02   -0.68502E-02   152   0.564E-01    0.265E-01
DAV:   9    -0.569581539769E+02   -0.44315E-03   -0.10730E-02   160   0.270E-01    0.162E-01
DAV:  10    -0.569582244244E+02   -0.70448E-04   -0.53130E-03   144   0.330E-01    0.141E-01
DAV:  11    -0.569582357534E+02   -0.11329E-04   -0.24386E-03   128   0.155E-01    0.873E-02
DAV:  12    -0.569583243690E+02   -0.88616E-04   -0.14691E-03   128   0.118E-01    0.676E-02
DAV:  13    -0.569583204179E+02    0.39511E-05   -0.54352E-04   104   0.938E-02
   7 F= -.56958320E+02 E0= -.56842764E+02  d E =-.353581E+01
       N       E                     dE             d eps       ncg     rms          rms(c)
DAV:   1    -0.581498743739E+02   -0.11916E+01   -0.20758E+02    96   0.997E+01    0.521E+00
DAV:   2    -0.597896514220E+02   -0.16398E+01   -0.24711E+01   104   0.197E+01    0.486E+00
DAV:   3    -0.597821068906E+02    0.75445E-02   -0.77268E+00   144   0.703E+00    0.792E+00
DAV:   4    -0.591201314972E+02    0.66198E+00   -0.56947E+00   144   0.606E+00    0.289E+00
DAV:   5    -0.591353243743E+02   -0.15193E-01   -0.25715E+00   144   0.339E+00    0.347E+00
DAV:   6    -0.590442052765E+02    0.91119E-01   -0.17075E+00   144   0.200E+00    0.205E+00
DAV:   7    -0.590269732473E+02    0.17232E-01   -0.88798E-01   160   0.125E+00    0.179E+00
DAV:   8    -0.590213371893E+02    0.56361E-02   -0.62881E-01   144   0.186E+00    0.135E+00
DAV:   9    -0.590034020642E+02    0.17935E-01   -0.25062E-01   144   0.125E+00    0.658E-01
DAV:  10    -0.590010498707E+02    0.23522E-02   -0.75354E-02   160   0.865E-01    0.398E-01
DAV:  11    -0.590003173334E+02    0.73254E-03   -0.21524E-02   144   0.744E-01    0.158E-01
DAV:  12    -0.590007922233E+02   -0.47489E-03   -0.32462E-03   144   0.204E-01    0.100E-01
DAV:  13    -0.590012166858E+02   -0.42446E-03   -0.69622E-04   104   0.906E-02    0.520E-02
DAV:  14    -0.590015210775E+02   -0.30439E-03   -0.14093E-04    48   0.500E-02    0.253E-02
DAV:  15    -0.590018827834E+02   -0.36171E-03   -0.16514E-04    64   0.499E-02    0.148E-02
DAV:  16    -0.590020906779E+02   -0.20789E-03   -0.51520E-05    48   0.297E-02    0.114E-02
DAV:  17    -0.590024345971E+02   -0.34392E-03   -0.68143E-05    56   0.250E-02    0.970E-03
DAV:  18    -0.590026497703E+02   -0.21517E-03   -0.46570E-05    48   0.222E-02    0.684E-03
DAV:  19    -0.590028383459E+02   -0.18858E-03   -0.35106E-05    56   0.193E-02    0.387E-03
DAV:  20    -0.590029433569E+02   -0.10501E-03   -0.27080E-05    48   0.143E-02    0.328E-03
DAV:  21    -0.590030104104E+02   -0.67054E-04   -0.20578E-05    48   0.105E-02
   8 F= -.59003010E+02 E0= -.58884810E+02  d E =-.204469E+01
       N       E                     dE             d eps       ncg     rms          rms(c)
DAV:   1    -0.590171484524E+02   -0.14205E-01   -0.21714E+00    96   0.109E+01    0.669E-01
DAV:   2    -0.590674699114E+02   -0.50321E-01   -0.65387E-01   136   0.210E+00    0.181E+00
DAV:   3    -0.590434292522E+02    0.24041E-01   -0.64486E-01   144   0.148E+00    0.183E+00
DAV:   4    -0.590203405669E+02    0.23089E-01   -0.16001E-01   152   0.967E-01    0.274E-01
DAV:   5    -0.590247669386E+02   -0.44264E-02   -0.22498E-02   144   0.347E-01    0.328E-01
DAV:   6    -0.590236262154E+02    0.11407E-02   -0.15588E-02   144   0.219E-01    0.224E-01
DAV:   7    -0.590246179533E+02   -0.99174E-03   -0.12531E-02   144   0.325E-01    0.321E-01
DAV:   8    -0.590236112271E+02    0.10067E-02   -0.92803E-03   128   0.176E-01    0.155E-01
DAV:   9    -0.590235859315E+02    0.25296E-04   -0.26120E-03   112   0.124E-01    0.107E-01
DAV:  10    -0.590235784831E+02    0.74484E-05   -0.13405E-03    64   0.628E-02    0.510E-02
DAV:  11    -0.590235802813E+02   -0.17982E-05   -0.16530E-04    48   0.976E-02
   9 F= -.59023580E+02 E0= -.58905537E+02  d E =-.206526E+01
       N       E                     dE             d eps       ncg     rms          rms(c)
DAV:   1    -0.602884290775E+02   -0.12649E+01   -0.99420E+01    96   0.765E+01    0.383E+00
DAV:   2    -0.635749192729E+02   -0.32865E+01   -0.34227E+01   144   0.177E+01    0.151E+01
DAV:   3    -0.609226414556E+02    0.26523E+01   -0.21208E+01   144   0.128E+01    0.312E+00
DAV:   4    -0.609669897513E+02   -0.44348E-01   -0.33896E+00   152   0.492E+00    0.336E+00
DAV:   5    -0.608975181351E+02    0.69472E-01   -0.23135E+00   152   0.188E+00    0.219E+00
DAV:   6    -0.608631081217E+02    0.34410E-01   -0.67576E-01   160   0.180E+00    0.123E+00
DAV:   7    -0.608708294649E+02   -0.77213E-02   -0.45469E-01   160   0.173E+00    0.136E+00
DAV:   8    -0.608480501736E+02    0.22779E-01   -0.33513E-01   144   0.282E+00    0.517E-01
DAV:   9    -0.608489571138E+02   -0.90694E-03   -0.48449E-02   136   0.801E-01    0.333E-01
DAV:  10    -0.608496678893E+02   -0.71078E-03   -0.23898E-02   152   0.240E-01    0.323E-01
DAV:  11    -0.608489861478E+02    0.68174E-03   -0.14328E-02   136   0.149E-01    0.135E-01
DAV:  12    -0.608493308338E+02   -0.34469E-03   -0.29381E-03   136   0.122E-01    0.843E-02
DAV:  13    -0.608494913851E+02   -0.16055E-03   -0.89488E-04   112   0.981E-02    0.352E-02
DAV:  14    -0.608496331030E+02   -0.14172E-03   -0.16253E-04    80   0.484E-02    0.145E-02
DAV:  15    -0.608497752304E+02   -0.14213E-03   -0.40888E-05    72   0.319E-02    0.116E-02
DAV:  16    -0.608499522906E+02   -0.17706E-03   -0.29619E-05    56   0.188E-02    0.629E-03
DAV:  17    -0.608501446111E+02   -0.19232E-03   -0.33267E-05    48   0.172E-02    0.426E-03
DAV:  18    -0.608503033362E+02   -0.15873E-03   -0.28355E-05    48   0.126E-02    0.382E-03
DAV:  19    -0.608503876946E+02   -0.84358E-04   -0.19346E-05    48   0.112E-02
  10 F= -.60850388E+02 E0= -.60732800E+02  d E =-.182681E+01
       N       E                     dE             d eps       ncg     rms          rms(c)
DAV:   1    -0.605834838333E+02    0.26682E+00   -0.18526E+02   104   0.102E+02    0.505E+00
DAV:   2    -0.645414271228E+02   -0.39579E+01   -0.41126E+01   144   0.229E+01    0.151E+01
DAV:   3    -0.618179099202E+02    0.27235E+01   -0.26729E+01   144   0.142E+01    0.449E+00
DAV:   4    -0.617073249822E+02    0.11058E+00   -0.38466E+00   136   0.466E+00    0.375E+00
DAV:   5    -0.615599083611E+02    0.14742E+00   -0.20054E+00   152   0.224E+00    0.209E+00
DAV:   6    -0.616285965690E+02   -0.68688E-01   -0.17737E+00   152   0.199E+00    0.222E+00
DAV:   7    -0.615360969235E+02    0.92500E-01   -0.89383E-01   136   0.131E+00    0.113E+00
DAV:   8    -0.615363878201E+02   -0.29090E-03   -0.35126E-01   160   0.960E-01    0.966E-01
DAV:   9    -0.615314323864E+02    0.49554E-02   -0.14417E-01   160   0.519E-01    0.725E-01
DAV:  10    -0.615277947764E+02    0.36376E-02   -0.76894E-02   144   0.657E-01    0.363E-01
DAV:  11    -0.615286808060E+02   -0.88603E-03   -0.24614E-02   160   0.474E-01    0.309E-01
DAV:  12    -0.615284206161E+02    0.26019E-03   -0.11364E-02   152   0.550E-01    0.105E-01
DAV:  13    -0.615285810185E+02   -0.16040E-03   -0.20367E-03   128   0.212E-01    0.482E-02
DAV:  14    -0.615287649658E+02   -0.18395E-03   -0.34358E-04   104   0.905E-02    0.256E-02
DAV:  15    -0.615289307507E+02   -0.16578E-03   -0.60930E-05    72   0.393E-02    0.147E-02
DAV:  16    -0.615291995197E+02   -0.26877E-03   -0.96503E-05    80   0.391E-02    0.108E-02
DAV:  17    -0.615293368331E+02   -0.13731E-03   -0.30541E-05    72   0.264E-02    0.812E-03
DAV:  18    -0.615294767744E+02   -0.13994E-03   -0.20137E-05    72   0.154E-02    0.608E-03
DAV:  19    -0.615296043261E+02   -0.12755E-03   -0.17158E-05    72   0.159E-02    0.329E-03
DAV:  20    -0.615297132424E+02   -0.10892E-03   -0.20740E-05    72   0.141E-02    0.269E-03
DAV:  21    -0.615297534905E+02   -0.40248E-04   -0.10060E-05    72   0.101E-02
  11 F= -.61529753E+02 E0= -.61414440E+02  d E =-.250617E+01
       N       E                     dE             d eps       ncg     rms          rms(c)
DAV:   1    -0.615331601371E+02   -0.34469E-02   -0.23583E+01    96   0.378E+01    0.228E+00
DAV:   2    -0.622331146291E+02   -0.69995E+00   -0.76211E+00   152   0.865E+00    0.619E+00
DAV:   3    -0.618507733641E+02    0.38234E+00   -0.62579E+00   144   0.414E+00    0.402E+00
DAV:   4    -0.616267884154E+02    0.22398E+00   -0.15939E+00   152   0.224E+00    0.943E-01
DAV:   5    -0.616561986002E+02   -0.29410E-01   -0.37058E-01   152   0.116E+00    0.135E+00
DAV:   6    -0.616321690254E+02    0.24030E-01   -0.32768E-01   144   0.107E+00    0.651E-01
DAV:   7    -0.616433858004E+02   -0.11217E-01   -0.15994E-01   152   0.858E-01    0.954E-01
DAV:   8    -0.616314678854E+02    0.11918E-01   -0.12246E-01   152   0.640E-01    0.406E-01
DAV:   9    -0.616314639048E+02    0.39806E-05   -0.29800E-02   144   0.341E-01    0.303E-01
DAV:  10    -0.616306010469E+02    0.86286E-03   -0.97580E-03   144   0.179E-01    0.921E-02
DAV:  11    -0.616308051012E+02   -0.20405E-03   -0.11531E-03   120   0.163E-01    0.539E-02
DAV:  12    -0.616309740031E+02   -0.16890E-03   -0.11153E-03   128   0.185E-01    0.644E-02
DAV:  13    -0.616309683301E+02    0.56731E-05   -0.42054E-04   104   0.119E-01
  12 F= -.61630968E+02 E0= -.61513997E+02  d E =-.260739E+01
       N       E                     dE             d eps       ncg     rms          rms(c)
DAV:   1    -0.616429515568E+02   -0.11978E-01   -0.15965E+00   104   0.989E+00    0.573E-01
DAV:   2    -0.616987046925E+02   -0.55753E-01   -0.54803E-01   152   0.224E+00    0.200E+00
DAV:   3    -0.616491049508E+02    0.49600E-01   -0.35904E-01   144   0.110E+00    0.549E-01
DAV:   4    -0.616523461067E+02   -0.32412E-02   -0.75732E-02   160   0.485E-01    0.446E-01
DAV:   5    -0.616508522989E+02    0.14938E-02   -0.30995E-02   144   0.374E-01    0.259E-01
DAV:   6    -0.616506083676E+02    0.24393E-03   -0.12193E-02   144   0.519E-01    0.132E-01
DAV:   7    -0.616509200546E+02   -0.31169E-03   -0.44802E-03   144   0.158E-01    0.130E-01
DAV:   8    -0.616506618226E+02    0.25823E-03   -0.25286E-03   136   0.173E-01    0.415E-02
DAV:   9    -0.616507365164E+02   -0.74694E-04   -0.47531E-04    72   0.731E-02
  13 F= -.61650737E+02 E0= -.61534316E+02  d E =-.262716E+01
       N       E                     dE             d eps       ncg     rms          rms(c)
DAV:   1    -0.625153703529E+02   -0.86471E+00   -0.70989E+01   104   0.652E+01    0.316E+00
DAV:   2    -0.649635544804E+02   -0.24482E+01   -0.23939E+01   152   0.147E+01    0.108E+01
DAV:   3    -0.631096790547E+02    0.18539E+01   -0.10824E+01   144   0.949E+00    0.338E+00
DAV:   4    -0.629603545896E+02    0.14932E+00   -0.12227E+00   144   0.302E+00    0.154E+00
DAV:   5    -0.629441427455E+02    0.16212E-01   -0.27512E-01   168   0.186E+00    0.107E+00
DAV:   6    -0.629669007328E+02   -0.22758E-01   -0.48673E-01   144   0.245E+00    0.149E+00
DAV:   7    -0.629509884148E+02    0.15912E-01   -0.45917E-01   152   0.136E+00    0.106E+00
DAV:   8    -0.629404712431E+02    0.10517E-01   -0.18210E-01   152   0.119E+00    0.501E-01
DAV:   9    -0.629414000179E+02   -0.92877E-03   -0.47441E-02   152   0.509E-01    0.444E-01
DAV:  10    -0.629390744983E+02    0.23255E-02   -0.20876E-02   160   0.349E-01    0.142E-01
DAV:  11    -0.629396723474E+02   -0.59785E-03   -0.46396E-03   160   0.164E-01    0.165E-01
DAV:  12    -0.629395101119E+02    0.16224E-03   -0.26560E-03   136   0.157E-01    0.729E-02
DAV:  13    -0.629396881387E+02   -0.17803E-03   -0.40167E-04    72   0.776E-02    0.234E-02
DAV:  14    -0.629398033961E+02   -0.11526E-03   -0.10213E-04    80   0.425E-02    0.174E-02
DAV:  15    -0.629399031361E+02   -0.99740E-04   -0.29004E-05    72   0.288E-02
  14 F= -.62939903E+02 E0= -.62822943E+02  d E =-.128917E+01
       N       E                     dE             d eps       ncg     rms          rms(c)
DAV:   1    -0.629210099460E+02    0.18793E-01   -0.12948E+02    96   0.862E+01    0.473E+00
DAV:   2    -0.677055382461E+02   -0.47845E+01   -0.46320E+01   152   0.207E+01    0.163E+01
DAV:   3    -0.642489981830E+02    0.34565E+01   -0.23714E+01   144   0.152E+01    0.494E+00
DAV:   4    -0.636330699688E+02    0.61593E+00   -0.27969E+00   136   0.462E+00    0.251E+00
DAV:   5    -0.636657009810E+02   -0.32631E-01   -0.15936E+00   160   0.321E+00    0.282E+00
DAV:   6    -0.635880963863E+02    0.77605E-01   -0.13485E+00   152   0.245E+00    0.162E+00
DAV:   7    -0.636347030970E+02   -0.46607E-01   -0.93791E-01   152   0.134E+00    0.254E+00
DAV:   8    -0.635678279464E+02    0.66875E-01   -0.86222E-01   160   0.929E-01    0.843E-01
DAV:   9    -0.635727958767E+02   -0.49679E-02   -0.14102E-01   144   0.122E+00    0.733E-01
DAV:  10    -0.635695184252E+02    0.32775E-02   -0.97362E-02   152   0.611E-01    0.458E-01
DAV:  11    -0.635681963194E+02    0.13221E-02   -0.28545E-02   152   0.462E-01    0.304E-01
DAV:  12    -0.635675924786E+02    0.60384E-03   -0.87866E-03   144   0.321E-01    0.106E-01
DAV:  13    -0.635681026181E+02   -0.51014E-03   -0.20015E-03   136   0.151E-01    0.801E-02
DAV:  14    -0.635683209856E+02   -0.21837E-03   -0.91769E-04    72   0.605E-02    0.546E-02
DAV:  15    -0.635684195440E+02   -0.98558E-04   -0.15969E-04    72   0.367E-02
  15 F= -.63568420E+02 E0= -.63456646E+02  d E =-.191768E+01
       N       E                     dE             d eps       ncg     rms          rms(c)
DAV:   1    -0.635628257682E+02    0.54952E-02   -0.93877E+00   104   0.235E+01    0.125E+00
DAV:   2    -0.640376151021E+02   -0.47479E+00   -0.50351E+00   152   0.532E+00    0.604E+00
DAV:   3    -0.636120573530E+02    0.42556E+00   -0.41388E+00   144   0.250E+00    0.138E+00
DAV:   4    -0.636082000351E+02    0.38573E-02   -0.30739E-01   160   0.123E+00    0.763E-01
DAV:   5    -0.636080518516E+02    0.14818E-03   -0.11565E-01   152   0.100E+00    0.659E-01
DAV:   6    -0.636040023415E+02    0.40495E-02   -0.73639E-02   152   0.555E-01    0.378E-01
DAV:   7    -0.636055172026E+02   -0.15149E-02   -0.32849E-02   152   0.394E-01    0.458E-01
DAV:   8    -0.636034788739E+02    0.20383E-02   -0.28292E-02   152   0.395E-01    0.190E-01
DAV:   9    -0.636036866517E+02   -0.20778E-03   -0.57423E-03   144   0.237E-01    0.108E-01
DAV:  10    -0.636036960778E+02   -0.94261E-05   -0.23952E-03   136   0.224E-01    0.720E-02
DAV:  11    -0.636037466098E+02   -0.50532E-04   -0.11090E-03    80   0.654E-02    0.704E-02
DAV:  12    -0.636037011958E+02    0.45414E-04   -0.50709E-04    88   0.626E-02
  16 F= -.63603701E+02 E0= -.63489965E+02  d E =-.195296E+01
       N       E                     dE             d eps       ncg     rms          rms(c)
DAV:   1    -0.643483863186E+02   -0.74464E+00   -0.62083E+01    96   0.611E+01    0.377E+00
DAV:   2    -0.676044545617E+02   -0.32561E+01   -0.39107E+01   152   0.158E+01    0.112E+01
DAV:   3    -0.656843124626E+02    0.19201E+01   -0.11256E+01   152   0.123E+01    0.595E+00
DAV:   4    -0.648686393236E+02    0.81567E+00   -0.25248E+00   128   0.406E+00    0.320E+00
DAV:   5    -0.647347441806E+02    0.13390E+00   -0.90704E-01   160   0.426E+00    0.242E+00
DAV:   6    -0.646557742793E+02    0.78970E-01   -0.56678E-01   152   0.201E+00    0.117E+00
DAV:   7    -0.646579164383E+02   -0.21422E-02   -0.24741E-01   160   0.105E+00    0.110E+00
DAV:   8    -0.646585813396E+02   -0.66490E-03   -0.23046E-01   144   0.104E+00    0.104E+00
DAV:   9    -0.646513745094E+02    0.72068E-02   -0.15345E-01   152   0.832E-01    0.542E-01
DAV:  10    -0.646504510404E+02    0.92347E-03   -0.80277E-02   152   0.339E-01    0.493E-01
DAV:  11    -0.646484121915E+02    0.20388E-02   -0.22563E-02   144   0.199E-01    0.157E-01
DAV:  12    -0.646487265966E+02   -0.31441E-03   -0.48672E-03   136   0.121E-01    0.131E-01
DAV:  13    -0.646488628837E+02   -0.13629E-03   -0.11151E-03    96   0.907E-02    0.756E-02
DAV:  14    -0.646490785407E+02   -0.21566E-03   -0.17668E-04    72   0.685E-02    0.423E-02
DAV:  15    -0.646492044355E+02   -0.12589E-03   -0.30497E-04    72   0.375E-02    0.335E-02
DAV:  16    -0.646493071730E+02   -0.10274E-03   -0.10440E-04    72   0.291E-02    0.684E-03
DAV:  17    -0.646494135881E+02   -0.10642E-03   -0.34471E-05    72   0.186E-02    0.867E-03
DAV:  18    -0.646495084171E+02   -0.94829E-04   -0.32743E-05    72   0.159E-02
  17 F= -.64649508E+02 E0= -.64543731E+02  d E =-.104581E+01
       N       E                     dE             d eps       ncg     rms          rms(c)
DAV:   1    -0.648930889195E+02   -0.24368E+00   -0.10474E+02   104   0.785E+01    0.597E+00
DAV:   2    -0.719665628556E+02   -0.70735E+01   -0.10378E+02   144   0.229E+01    0.178E+01
DAV:   3    -0.685530884679E+02    0.34135E+01   -0.31365E+01   160   0.223E+01    0.873E+00
DAV:   4    -0.661118529492E+02    0.24412E+01   -0.59886E+00   144   0.638E+00    0.508E+00
DAV:   5    -0.657506606435E+02    0.36119E+00   -0.25375E+00   152   0.555E+00    0.375E+00
DAV:   6    -0.652404407758E+02    0.51022E+00   -0.87429E-01   144   0.255E+00    0.241E+00
DAV:   7    -0.652057579809E+02    0.34683E-01   -0.84598E-01   144   0.124E+00    0.157E+00
DAV:   8    -0.651989204967E+02    0.68375E-02   -0.53853E-01   152   0.114E+00    0.123E+00
DAV:   9    -0.652064179286E+02   -0.74974E-02   -0.26902E-01   144   0.849E-01    0.123E+00
DAV:  10    -0.651967167473E+02    0.97012E-02   -0.15841E-01   144   0.543E-01    0.988E-01
DAV:  11    -0.651846925821E+02    0.12024E-01   -0.12929E-01   160   0.463E-01    0.345E-01
DAV:  12    -0.651866414590E+02   -0.19489E-02   -0.33458E-03   120   0.178E-01    0.358E-01
DAV:  13    -0.651859062979E+02    0.73516E-03   -0.17124E-02   128   0.112E-01    0.154E-01
DAV:  14    -0.651862173924E+02   -0.31109E-03   -0.11750E-03   128   0.122E-01    0.632E-02
DAV:  15    -0.651863428185E+02   -0.12543E-03   -0.15178E-04    72   0.417E-02    0.452E-02
DAV:  16    -0.651864981092E+02   -0.15529E-03   -0.14363E-04    72   0.328E-02    0.150E-02
DAV:  17    -0.651866685235E+02   -0.17041E-03   -0.37453E-05    72   0.222E-02    0.929E-03
DAV:  18    -0.651868256793E+02   -0.15716E-03   -0.93614E-05    72   0.234E-02    0.222E-02
DAV:  19    -0.651869495661E+02   -0.12389E-03   -0.58693E-05    72   0.169E-02    0.670E-03
DAV:  20    -0.651870324775E+02   -0.82911E-04   -0.36435E-05    72   0.155E-02
  18 F= -.65187032E+02 E0= -.65089757E+02  d E =-.158333E+01
       N       E                     dE             d eps       ncg     rms          rms(c)
DAV:   1    -0.659216068071E+02   -0.73466E+00   -0.85959E+01    96   0.771E+01    0.658E+00
DAV:   2    -0.742140917797E+02   -0.82925E+01   -0.13568E+02   144   0.213E+01    0.158E+01
DAV:   3    -0.698977349499E+02    0.43164E+01   -0.31593E+01   152   0.195E+01    0.995E+00
DAV:   4    -0.670828901496E+02    0.28148E+01   -0.65903E+00   144   0.760E+00    0.493E+00
DAV:   5    -0.666079838499E+02    0.47491E+00   -0.19779E+00   144   0.230E+00    0.388E+00
DAV:   6    -0.661834092325E+02    0.42457E+00   -0.83904E-01   168   0.162E+00    0.301E+00
DAV:   7    -0.660442668147E+02    0.13914E+00   -0.20701E-01   136   0.137E+00    0.219E+00
DAV:   8    -0.659978956230E+02    0.46371E-01   -0.35934E-01   152   0.260E+00    0.156E+00
DAV:   9    -0.659890222359E+02    0.88734E-02   -0.26806E-01   160   0.187E+00    0.998E-01
DAV:  10    -0.659868881864E+02    0.21340E-02   -0.33347E-02   144   0.790E-01    0.641E-01
DAV:  11    -0.659935805027E+02   -0.66923E-02   -0.10724E-01   144   0.439E-01    0.697E-01
DAV:  12    -0.659877774977E+02    0.58030E-02   -0.24574E-02   160   0.335E-01    0.443E-01
DAV:  13    -0.659861613665E+02    0.16161E-02   -0.23915E-02   144   0.160E-01    0.161E-01
DAV:  14    -0.659867188596E+02   -0.55749E-03   -0.92614E-04   120   0.111E-01    0.162E-01
DAV:  15    -0.659877349173E+02   -0.10161E-02   -0.16398E-02   136   0.101E-01    0.310E-01
DAV:  16    -0.659872850828E+02    0.44983E-03   -0.57967E-04    88   0.461E-02    0.236E-01
DAV:  17    -0.659869538475E+02    0.33124E-03   -0.57477E-03   112   0.550E-02    0.455E-02
DAV:  18    -0.659871556004E+02   -0.20175E-03   -0.26199E-04    72   0.288E-02    0.109E-02
DAV:  19    -0.659872913945E+02   -0.13579E-03   -0.66352E-05    72   0.134E-02    0.172E-02
DAV:  20    -0.659874186979E+02   -0.12730E-03   -0.51332E-05    72   0.105E-02    0.376E-02
DAV:  21    -0.659874684935E+02   -0.49796E-04   -0.12487E-04    72   0.915E-03
  19 F= -.65987468E+02 E0= -.65890214E+02  d E =-.800436E+00
       N       E                     dE             d eps       ncg     rms          rms(c)
DAV:   1    -0.665549361141E+02   -0.56752E+00   -0.20236E+02   112   0.115E+02    0.792E+00
DAV:   2    -0.774327253656E+02   -0.10878E+02   -0.12896E+02   152   0.282E+01    0.172E+01
DAV:   3    -0.702048962299E+02    0.72278E+01   -0.32534E+01   152   0.211E+01    0.108E+01
DAV:   4    -0.669722580940E+02    0.32326E+01   -0.94997E+00   144   0.788E+00    0.507E+00
DAV:   5    -0.665316615871E+02    0.44060E+00   -0.37004E+00   152   0.291E+00    0.332E+00
DAV:   6    -0.665043568922E+02    0.27305E-01   -0.22238E+00   144   0.185E+00    0.221E+00
DAV:   7    -0.664890367316E+02    0.15320E-01   -0.10254E+00   136   0.112E+00    0.182E+00
DAV:   8    -0.664795613258E+02    0.94754E-02   -0.14243E-01   152   0.102E+00    0.141E+00
DAV:   9    -0.664721951155E+02    0.73662E-02   -0.28780E-01   144   0.146E+00    0.801E-01
DAV:  10    -0.664727684639E+02   -0.57335E-03   -0.10512E-01   152   0.788E-01    0.846E-01
DAV:  11    -0.664671926191E+02    0.55758E-02   -0.19417E-02   152   0.416E-01    0.399E-01
DAV:  12    -0.664681785959E+02   -0.98598E-03   -0.88933E-03   144   0.509E-01    0.345E-01
DAV:  13    -0.664681627256E+02    0.15870E-04   -0.96310E-03   152   0.547E-01    0.213E-01
DAV:  14    -0.664688613525E+02   -0.69863E-03   -0.98921E-03   144   0.209E-01    0.209E-01
DAV:  15    -0.664687331411E+02    0.12821E-03   -0.12227E-03   112   0.662E-02    0.817E-02
DAV:  16    -0.664689973469E+02   -0.26421E-03   -0.44850E-04    80   0.403E-02    0.173E-02
DAV:  17    -0.664693576190E+02   -0.36027E-03   -0.59710E-05    72   0.279E-02    0.857E-03
DAV:  18    -0.664696606704E+02   -0.30305E-03   -0.59140E-05    80   0.190E-02    0.124E-02
DAV:  19    -0.664699483954E+02   -0.28773E-03   -0.36032E-05    72   0.150E-02    0.476E-03
DAV:  20    -0.664702162616E+02   -0.26787E-03   -0.59255E-05    80   0.151E-02    0.631E-03
DAV:  21    -0.664703102160E+02   -0.93954E-04   -0.15435E-05    72   0.995E-03
  20 F= -.66470310E+02 E0= -.66381090E+02  d E =-.128328E+01
       N       E                     dE             d eps       ncg     rms          rms(c)
DAV:   1    -0.666358912724E+02   -0.16568E+00   -0.11245E+02   104   0.889E+01    0.517E+00
DAV:   2    -0.737023032475E+02   -0.70664E+01   -0.93325E+01   144   0.215E+01    0.147E+01
DAV:   3    -0.691078495692E+02    0.45945E+01   -0.19419E+01   160   0.163E+01    0.822E+00
DAV:   4    -0.674627242322E+02    0.16451E+01   -0.53367E+00   144   0.563E+00    0.382E+00
DAV:   5    -0.673073993966E+02    0.15532E+00   -0.19638E+00   152   0.362E+00    0.210E+00
DAV:   6    -0.672853093775E+02    0.22090E-01   -0.67247E-01   144   0.285E+00    0.157E+00
DAV:   7    -0.672821615645E+02    0.31478E-02   -0.53945E-01   136   0.177E+00    0.132E+00
DAV:   8    -0.672861327140E+02   -0.39711E-02   -0.42076E-01   144   0.111E+00    0.122E+00
DAV:   9    -0.672655084957E+02    0.20624E-01   -0.16740E-01   152   0.104E+00    0.616E-01
DAV:  10    -0.672662008686E+02   -0.69237E-03   -0.92576E-02   136   0.542E-01    0.551E-01
DAV:  11    -0.672638861080E+02    0.23148E-02   -0.16041E-02   136   0.180E-01    0.169E-01
DAV:  12    -0.672644635409E+02   -0.57743E-03   -0.35451E-03   136   0.175E-01    0.174E-01
DAV:  13    -0.672642954514E+02    0.16809E-03   -0.46901E-03   120   0.111E-01    0.699E-02
DAV:  14    -0.672644197602E+02   -0.12431E-03   -0.30237E-04    72   0.433E-02    0.302E-02
DAV:  15    -0.672645823679E+02   -0.16261E-03   -0.73208E-05    72   0.365E-02    0.158E-02
DAV:  16    -0.672646965668E+02   -0.11420E-03   -0.72841E-05    72   0.206E-02    0.145E-02
DAV:  17    -0.672648347046E+02   -0.13814E-03   -0.59280E-05    72   0.178E-02    0.983E-03
DAV:  18    -0.672649147726E+02   -0.80068E-04   -0.16577E-05    56   0.122E-02
  21 F= -.67264915E+02 E0= -.67179987E+02  d E =-.794605E+00
       N       E                     dE             d eps       ncg     rms          rms(c)
DAV:   1    -0.672605364037E+02    0.42983E-02   -0.23390E+00   104   0.133E+01    0.817E-01
DAV:   2    -0.677242343854E+02   -0.46370E+00   -0.48304E+00   152   0.343E+00    0.621E+00
DAV:   3    -0.672593452352E+02    0.46489E+00   -0.24374E+00   144   0.234E+00    0.111E+00
DAV:   4    -0.672758371644E+02   -0.16492E-01   -0.14523E-01   136   0.890E-01    0.524E-01
DAV:   5    -0.672760935447E+02   -0.25638E-03   -0.50520E-02   152   0.641E-01    0.398E-01
DAV:   6    -0.672748053997E+02    0.12881E-02   -0.11892E-02   144   0.436E-01    0.173E-01
DAV:   7    -0.672760100226E+02   -0.12046E-02   -0.14581E-02   152   0.278E-01    0.263E-01
DAV:   8    -0.672750947897E+02    0.91523E-03   -0.10293E-02   136   0.146E-01    0.811E-02
DAV:   9    -0.672751574746E+02   -0.62685E-04   -0.15104E-03   128   0.139E-01    0.579E-02
DAV:  10    -0.672751574451E+02    0.29454E-07   -0.30840E-04   104   0.942E-02
  22 F= -.67275157E+02 E0= -.67189987E+02  d E =-.804847E+00
       N       E                     dE             d eps       ncg     rms          rms(c)
DAV:   1    -0.679625143739E+02   -0.68736E+00   -0.51508E+01   112   0.614E+01    0.264E+00
DAV:   2    -0.699225042686E+02   -0.19600E+01   -0.17679E+01   112   0.120E+01    0.650E+00
DAV:   3    -0.683405642493E+02    0.15819E+01   -0.22829E+00   152   0.330E+00    0.214E+00
DAV:   4    -0.683636292398E+02   -0.23065E-01   -0.12437E+00   152   0.280E+00    0.246E+00
DAV:   5    -0.682994209677E+02    0.64208E-01   -0.47192E-01   152   0.228E+00    0.910E-01
DAV:   6    -0.682980579618E+02    0.13630E-02   -0.15840E-01   152   0.103E+00    0.794E-01
DAV:   7    -0.682977701475E+02    0.28781E-03   -0.10452E-01   144   0.827E-01    0.575E-01
DAV:   8    -0.682961465319E+02    0.16236E-02   -0.52523E-02   144   0.655E-01    0.303E-01
DAV:   9    -0.682962601859E+02   -0.11365E-03   -0.20112E-02   144   0.263E-01    0.211E-01
DAV:  10    -0.682962058723E+02    0.54314E-04   -0.84970E-03   136   0.140E-01    0.141E-01
DAV:  11    -0.682961867766E+02    0.19096E-04   -0.14481E-03    88   0.780E-02    0.430E-02
DAV:  12    -0.682963358951E+02   -0.14912E-03   -0.37615E-04   112   0.959E-02    0.376E-02
DAV:  13    -0.682964176147E+02   -0.81720E-04   -0.19191E-04    72   0.690E-02
  23 F= -.68296418E+02 E0= -.68211062E+02  d E =-.102126E+01
       N       E                     dE             d eps       ncg     rms          rms(c)
DAV:   1    -0.665637094194E+02    0.17326E+01   -0.46269E+02   112   0.168E+02    0.600E+00
DAV:   2    -0.718263851698E+02   -0.52627E+01   -0.57403E+01   104   0.363E+01    0.744E+00
DAV:   3    -0.705051055476E+02    0.13213E+01   -0.10373E+01   152   0.103E+01    0.378E+00
DAV:   4    -0.704293991204E+02    0.75706E-01   -0.20153E+00   144   0.511E+00    0.346E+00
DAV:   5    -0.704998020179E+02   -0.70403E-01   -0.29313E+00   152   0.450E+00    0.369E+00
DAV:   6    -0.704231770848E+02    0.76625E-01   -0.29069E+00   152   0.286E+00    0.221E+00
DAV:   7    -0.703753413691E+02    0.47836E-01   -0.94248E-01   144   0.311E+00    0.178E+00
DAV:   8    -0.703314787646E+02    0.43863E-01   -0.30432E-01   144   0.170E+00    0.669E-01
DAV:   9    -0.703341739751E+02   -0.26952E-02   -0.79818E-02   144   0.529E-01    0.494E-01
DAV:  10    -0.703332791258E+02    0.89485E-03   -0.31850E-02   144   0.537E-01    0.232E-01
DAV:  11    -0.703345720340E+02   -0.12929E-02   -0.11228E-02   144   0.301E-01    0.176E-01
DAV:  12    -0.703350600837E+02   -0.48805E-03   -0.20541E-03   136   0.133E-01    0.871E-02
DAV:  13    -0.703358823638E+02   -0.82228E-03   -0.73232E-04   104   0.736E-02    0.324E-02
DAV:  14    -0.703365668874E+02   -0.68452E-03   -0.19806E-04    96   0.405E-02    0.226E-02
DAV:  15    -0.703370380891E+02   -0.47120E-03   -0.12200E-04    72   0.260E-02    0.164E-02
DAV:  16    -0.703376461526E+02   -0.60806E-03   -0.96327E-05    80   0.218E-02    0.894E-03
DAV:  17    -0.703382744413E+02   -0.62829E-03   -0.10947E-04    88   0.202E-02    0.774E-03
DAV:  18    -0.703387067106E+02   -0.43227E-03   -0.76617E-05    80   0.184E-02    0.868E-03
DAV:  19    -0.703388353112E+02   -0.12860E-03   -0.25167E-05    72   0.102E-02    0.274E-03
DAV:  20    -0.703389432939E+02   -0.10798E-03   -0.16514E-05    72   0.881E-03    0.174E-03
DAV:  21    -0.703390144618E+02   -0.71168E-04   -0.10887E-05    72   0.683E-03
  24 F= -.70339014E+02 E0= -.70252850E+02  d E =-.306386E+01
       N       E                     dE             d eps       ncg     rms          rms(c)
DAV:   1    -0.453818195529E+02    0.24957E+02   -0.17818E+03   120   0.306E+02    0.132E+01
DAV:   2    -0.684129695828E+02   -0.23031E+02   -0.28776E+02   120   0.765E+01    0.240E+01
DAV:   3    -0.650434784584E+02    0.33695E+01   -0.13373E+02   160   0.360E+01    0.102E+01
DAV:   4    -0.630230734698E+02    0.20204E+01   -0.93966E+00   144   0.110E+01    0.626E+00
DAV:   5    -0.626845913150E+02    0.33848E+00   -0.56516E+00   152   0.735E+00    0.477E+00
DAV:   6    -0.624063620854E+02    0.27823E+00   -0.25905E+00   152   0.762E+00    0.377E+00
DAV:   7    -0.623259787855E+02    0.80383E-01   -0.14847E+00   152   0.359E+00    0.180E+00
DAV:   8    -0.623052235186E+02    0.20755E-01   -0.70223E-01   136   0.156E+00    0.127E+00
DAV:   9    -0.623058644582E+02   -0.64094E-03   -0.54795E-01   144   0.111E+00    0.102E+00
DAV:  10    -0.622896583845E+02    0.16206E-01   -0.13886E-01   144   0.847E-01    0.493E-01
DAV:  11    -0.622914009953E+02   -0.17426E-02   -0.22519E-02   144   0.484E-01    0.233E-01
DAV:  12    -0.622933105101E+02   -0.19095E-02   -0.49144E-03   152   0.244E-01    0.134E-01
DAV:  13    -0.622952171857E+02   -0.19067E-02   -0.29816E-03   136   0.128E-01    0.872E-02
DAV:  14    -0.622981223325E+02   -0.29051E-02   -0.18450E-03   128   0.125E-01    0.545E-02
DAV:  15    -0.623008227734E+02   -0.27004E-02   -0.77298E-04   104   0.903E-02    0.478E-02
DAV:  16    -0.623030762270E+02   -0.22535E-02   -0.46520E-04   104   0.590E-02    0.245E-02
DAV:  17    -0.623045913041E+02   -0.15151E-02   -0.27581E-04    96   0.429E-02    0.270E-02
DAV:  18    -0.623056877515E+02   -0.10964E-02   -0.19978E-04    96   0.399E-02    0.110E-02
DAV:  19    -0.623061315058E+02   -0.44375E-03   -0.33353E-05    72   0.191E-02    0.623E-03
DAV:  20    -0.623065130712E+02   -0.38157E-03   -0.43291E-05    80   0.149E-02    0.475E-03
DAV:  21    -0.623067532249E+02   -0.24015E-03   -0.22239E-05    72   0.118E-02    0.250E-03
DAV:  22    -0.623068608586E+02   -0.10763E-03   -0.11601E-05    72   0.785E-03    0.131E-03
DAV:  23    -0.623069295523E+02   -0.68694E-04   -0.71977E-06    72   0.538E-03
  25 F= -.62306930E+02 E0= -.62258316E+02  d E =0.496823E+01
       N       E                     dE             d eps       ncg     rms          rms(c)
DAV:   1    -0.558160329723E+02    0.64908E+01   -0.15872E+03   104   0.295E+02    0.126E+01
DAV:   2    -0.787044770660E+02   -0.22888E+02   -0.34410E+02    96   0.697E+01    0.161E+01
DAV:   3    -0.752604141405E+02    0.34441E+01   -0.81144E+01   152   0.402E+01    0.920E+00
DAV:   4    -0.722259271241E+02    0.30345E+01   -0.72985E+00   144   0.125E+01    0.562E+00
DAV:   5    -0.718483490054E+02    0.37758E+00   -0.82976E+00   160   0.736E+00    0.137E+01
DAV:   6    -0.707753197801E+02    0.10730E+01   -0.11857E+01   144   0.714E+00    0.427E+00
DAV:   7    -0.731545152599E+02   -0.23792E+01   -0.28934E+01   152   0.463E+00    0.868E+00
DAV:   8    -0.711153809356E+02    0.20391E+01   -0.41643E+00   136   0.352E+00    0.504E+00
DAV:   9    -0.706064282754E+02    0.50895E+00   -0.34149E+00   144   0.214E+00    0.236E+00
DAV:  10    -0.706222854904E+02   -0.15857E-01   -0.14353E+00   136   0.144E+00    0.261E+00
DAV:  11    -0.705354780347E+02    0.86807E-01   -0.13213E-01   144   0.103E+00    0.185E+00
DAV:  12    -0.704913739750E+02    0.44104E-01   -0.86537E-01   136   0.109E+00    0.980E-01
DAV:  13    -0.704780179591E+02    0.13356E-01   -0.10607E-01   136   0.587E-01    0.351E-01
DAV:  14    -0.704821158133E+02   -0.40979E-02   -0.20750E-02   136   0.325E-01    0.286E-01
DAV:  15    -0.704838809645E+02   -0.17652E-02   -0.15055E-02   120   0.165E-01    0.145E-01
DAV:  16    -0.704864967720E+02   -0.26158E-02   -0.47198E-03   128   0.125E-01    0.121E-01
DAV:  17    -0.704882758737E+02   -0.17791E-02   -0.16478E-03   112   0.108E-01    0.523E-02
DAV:  18    -0.704900826762E+02   -0.18068E-02   -0.64701E-04   104   0.711E-02    0.453E-02
DAV:  19    -0.704921767322E+02   -0.20941E-02   -0.12330E-03   104   0.545E-02    0.545E-02
DAV:  20    -0.704935409368E+02   -0.13642E-02   -0.62877E-04    96   0.470E-02    0.204E-02
DAV:  21    -0.704942842068E+02   -0.74327E-03   -0.22175E-04    88   0.308E-02    0.209E-02
DAV:  22    -0.704947410155E+02   -0.45681E-03   -0.11635E-04    80   0.241E-02    0.169E-02
DAV:  23    -0.704949595030E+02   -0.21849E-03   -0.49955E-05    72   0.162E-02    0.137E-02
DAV:  24    -0.704951253361E+02   -0.16583E-03   -0.69780E-05    88   0.144E-02    0.507E-03
DAV:  25    -0.704951624601E+02   -0.37124E-04   -0.92871E-06    72   0.828E-03
  26 F= -.70495162E+02 E0= -.70409664E+02  d E =-.322001E+01
       N       E                     dE             d eps       ncg     rms          rms(c)
DAV:   1    -0.713988819229E+02   -0.90376E+00   -0.59803E+01   104   0.624E+01    0.290E+00
DAV:   2    -0.734593105316E+02   -0.20604E+01   -0.24652E+01   136   0.147E+01    0.950E+00
DAV:   3    -0.720355719855E+02    0.14237E+01   -0.60681E+00   168   0.677E+00    0.299E+00
DAV:   4    -0.719791021509E+02    0.56470E-01   -0.12443E+00   152   0.380E+00    0.195E+00
DAV:   5    -0.719517601932E+02    0.27342E-01   -0.45319E-01   152   0.188E+00    0.121E+00
DAV:   6    -0.719634424479E+02   -0.11682E-01   -0.37935E-01   144   0.130E+00    0.131E+00
DAV:   7    -0.719520275837E+02    0.11415E-01   -0.36130E-01   144   0.118E+00    0.822E-01
DAV:   8    -0.719462485734E+02    0.57790E-02   -0.14088E-01   144   0.742E-01    0.420E-01
DAV:   9    -0.719450508904E+02    0.11977E-02   -0.37744E-02   144   0.562E-01    0.344E-01
DAV:  10    -0.719439620055E+02    0.10889E-02   -0.85882E-03   152   0.358E-01    0.913E-02
DAV:  11    -0.719442600765E+02   -0.29807E-03   -0.13304E-03   136   0.106E-01    0.599E-02
DAV:  12    -0.719443099573E+02   -0.49881E-04   -0.36565E-04    72   0.574E-02
  27 F= -.71944310E+02 E0= -.71860137E+02  d E =-.144915E+01
       N       E                     dE             d eps       ncg     rms          rms(c)
DAV:   1    -0.701568317542E+02    0.17874E+01   -0.32222E+02   112   0.137E+02    0.652E+00
DAV:   2    -0.802014705936E+02   -0.10045E+02   -0.70660E+01   128   0.349E+01    0.284E+01
DAV:   3    -0.733627277051E+02    0.68387E+01   -0.40514E+01   152   0.249E+01    0.606E+00
DAV:   4    -0.730974243431E+02    0.26530E+00   -0.62298E+00   144   0.523E+00    0.471E+00
DAV:   5    -0.728439056412E+02    0.25352E+00   -0.28780E+00   144   0.515E+00    0.454E+00
DAV:   6    -0.727841311261E+02    0.59775E-01   -0.28488E+00   152   0.380E+00    0.297E+00
DAV:   7    -0.727523802427E+02    0.31751E-01   -0.12128E+00   144   0.269E+00    0.202E+00
DAV:   8    -0.726873730556E+02    0.65007E-01   -0.64766E-01   152   0.171E+00    0.927E-01
DAV:   9    -0.726965183592E+02   -0.91453E-02   -0.23824E-01   136   0.989E-01    0.776E-01
DAV:  10    -0.726885082591E+02    0.80101E-02   -0.12478E-01   152   0.566E-01    0.413E-01
DAV:  11    -0.726884701701E+02    0.38089E-04   -0.14331E-02   128   0.246E-01    0.222E-01
DAV:  12    -0.726895356160E+02   -0.10654E-02   -0.45328E-03   144   0.142E-01    0.185E-01
DAV:  13    -0.726894389107E+02    0.96705E-04   -0.27835E-03   128   0.111E-01    0.118E-01
DAV:  14    -0.726897550129E+02   -0.31610E-03   -0.83235E-04   112   0.989E-02    0.474E-02
DAV:  15    -0.726901368607E+02   -0.38185E-03   -0.51936E-04    72   0.455E-02    0.406E-02
DAV:  16    -0.726905086675E+02   -0.37181E-03   -0.27252E-04    72   0.433E-02    0.192E-02
DAV:  17    -0.726909452520E+02   -0.43658E-03   -0.11327E-04    80   0.272E-02    0.160E-02
DAV:  18    -0.726914027756E+02   -0.45752E-03   -0.68184E-05    72   0.222E-02    0.180E-02
DAV:  19    -0.726916061392E+02   -0.20336E-03   -0.32567E-05    72   0.214E-02    0.140E-02
DAV:  20    -0.726917578248E+02   -0.15169E-03   -0.33787E-05    72   0.181E-02    0.355E-03
DAV:  21    -0.726918724215E+02   -0.11460E-03   -0.21267E-05    72   0.126E-02    0.434E-03
DAV:  22    -0.726919101845E+02   -0.37763E-04   -0.99796E-06    64   0.877E-03
  28 F= -.72691910E+02 E0= -.72599194E+02  d E =-.219675E+01
       N       E                     dE             d eps       ncg     rms          rms(c)
DAV:   1    -0.726923439523E+02   -0.47153E-03   -0.34103E+01   112   0.472E+01    0.272E+00
DAV:   2    -0.740894769273E+02   -0.13971E+01   -0.19185E+01   144   0.110E+01    0.479E+00
DAV:   3    -0.730240951991E+02    0.10654E+01   -0.19202E+00   152   0.498E+00    0.285E+00
DAV:   4    -0.729206555838E+02    0.10344E+00   -0.14849E+00   144   0.255E+00    0.213E+00
DAV:   5    -0.728656384669E+02    0.55017E-01   -0.43341E-01   144   0.151E+00    0.972E-01
DAV:   6    -0.728713927418E+02   -0.57543E-02   -0.40271E-01   152   0.106E+00    0.997E-01
DAV:   7    -0.728619270778E+02    0.94657E-02   -0.12698E-01   144   0.717E-01    0.748E-01
DAV:   8    -0.728940466607E+02   -0.32120E-01   -0.44483E-01   144   0.544E-01    0.154E+00
DAV:   9    -0.728610116500E+02    0.33035E-01   -0.10769E-01   152   0.700E-01    0.607E-01
DAV:  10    -0.728581300761E+02    0.28816E-02   -0.23119E-02   144   0.529E-01    0.190E-01
DAV:  11    -0.728590564069E+02   -0.92633E-03   -0.59097E-03   120   0.163E-01    0.954E-02
DAV:  12    -0.728593478240E+02   -0.29142E-03   -0.60760E-04    96   0.701E-02    0.683E-02
DAV:  13    -0.728593904850E+02   -0.42661E-04   -0.51130E-04    72   0.427E-02
  29 F= -.72859390E+02 E0= -.72772532E+02  d E =-.236423E+01
       N       E                     dE             d eps       ncg     rms          rms(c)
DAV:   1    -0.738912694416E+02   -0.10319E+01   -0.47869E+01    96   0.479E+01    0.344E+00
DAV:   2    -0.773645708818E+02   -0.34733E+01   -0.37981E+01   128   0.115E+01    0.138E+01
DAV:   3    -0.744029122855E+02    0.29617E+01   -0.12283E+01   152   0.100E+01    0.540E+00
DAV:   4    -0.738886104489E+02    0.51430E+00   -0.13884E+00   144   0.401E+00    0.170E+00
DAV:   5    -0.738889370387E+02   -0.32659E-03   -0.51481E-01   160   0.152E+00    0.138E+00
DAV:   6    -0.738592421789E+02    0.29695E-01   -0.30862E-01   136   0.984E-01    0.689E-01
DAV:   7    -0.738598170172E+02   -0.57484E-03   -0.10216E-01   152   0.955E-01    0.632E-01
DAV:   8    -0.738558384721E+02    0.39785E-02   -0.32698E-02   152   0.668E-01    0.285E-01
DAV:   9    -0.738566873596E+02   -0.84889E-03   -0.15036E-02   144   0.581E-01    0.255E-01
DAV:  10    -0.738560094516E+02    0.67791E-03   -0.93730E-03   144   0.353E-01    0.114E-01
DAV:  11    -0.738561324847E+02   -0.12303E-03   -0.22664E-03   120   0.167E-01    0.938E-02
DAV:  12    -0.738561642677E+02   -0.31783E-04   -0.84117E-04   104   0.780E-02
  30 F= -.73856164E+02 E0= -.73765579E+02  d E =-.996774E+00
       N       E                     dE             d eps       ncg     rms          rms(c)
DAV:   1    -0.741594881448E+02   -0.30336E+00   -0.30060E+01    96   0.377E+01    0.296E+00
DAV:   2    -0.767380558469E+02   -0.25786E+01   -0.28069E+01   128   0.912E+00    0.117E+01
DAV:   3    -0.744472636121E+02    0.22908E+01   -0.97392E+00   144   0.752E+00    0.479E+00
DAV:   4    -0.741349597927E+02    0.31230E+00   -0.10120E+00   136   0.346E+00    0.135E+00
DAV:   5    -0.741362346562E+02   -0.12749E-02   -0.41632E-01   152   0.125E+00    0.135E+00
DAV:   6    -0.741156195947E+02    0.20615E-01   -0.33115E-01   144   0.881E-01    0.689E-01
DAV:   7    -0.741158730777E+02   -0.25348E-03   -0.13715E-01   144   0.876E-01    0.597E-01
DAV:   8    -0.741118855041E+02    0.39876E-02   -0.47189E-02   152   0.563E-01    0.326E-01
DAV:   9    -0.741124419465E+02   -0.55644E-03   -0.21734E-02   144   0.322E-01    0.288E-01
DAV:  10    -0.741117261550E+02    0.71579E-03   -0.72354E-03   120   0.176E-01    0.870E-02
DAV:  11    -0.741121383977E+02   -0.41224E-03   -0.19439E-03   136   0.167E-01    0.103E-01
DAV:  12    -0.741121695732E+02   -0.31176E-04   -0.84658E-04   112   0.128E-01
  31 F= -.74112170E+02 E0= -.74020358E+02  d E =-.125278E+01
       N       E                     dE             d eps       ncg     rms          rms(c)
DAV:   1    -0.747386138482E+02   -0.62648E+00   -0.27309E+01    96   0.332E+01    0.324E+00
DAV:   2    -0.780368856704E+02   -0.32983E+01   -0.38290E+01   136   0.804E+00    0.127E+01
DAV:   3    -0.752780137129E+02    0.27589E+01   -0.96462E+00   152   0.822E+00    0.562E+00
DAV:   4    -0.747488539451E+02    0.52916E+00   -0.12039E+00   144   0.371E+00    0.239E+00
DAV:   5    -0.747190810372E+02    0.29773E-01   -0.36406E-01   128   0.105E+00    0.127E+00
DAV:   6    -0.747109518870E+02    0.81292E-02   -0.22128E-01   144   0.103E+00    0.793E-01
DAV:   7    -0.747059841610E+02    0.49677E-02   -0.56888E-02   144   0.691E-01    0.372E-01
DAV:   8    -0.747091810950E+02   -0.31969E-02   -0.66912E-02   144   0.615E-01    0.453E-01
DAV:   9    -0.747071823784E+02    0.19987E-02   -0.44401E-02   152   0.309E-01    0.269E-01
DAV:  10    -0.747065638887E+02    0.61849E-03   -0.85614E-03   144   0.230E-01    0.110E-01
DAV:  11    -0.747069600490E+02   -0.39616E-03   -0.20434E-03   136   0.200E-01    0.116E-01
DAV:  12    -0.747069938693E+02   -0.33820E-04   -0.72946E-04   104   0.114E-01
  32 F= -.74706994E+02 E0= -.74616100E+02  d E =-.594824E+00
       N       E                     dE             d eps       ncg     rms          rms(c)
DAV:   1    -0.747800628266E+02   -0.73103E-01   -0.48931E+00    96   0.140E+01    0.157E+00
DAV:   2    -0.758340087491E+02   -0.10539E+01   -0.10662E+01   136   0.362E+00    0.825E+00
DAV:   3    -0.748423371433E+02    0.99167E+00   -0.61853E+00   144   0.385E+00    0.328E+00
DAV:   4    -0.747737062940E+02    0.68631E-01   -0.43388E-01   128   0.193E+00    0.118E+00
DAV:   5    -0.747681950285E+02    0.55113E-02   -0.11379E-01   128   0.605E-01    0.557E-01
DAV:   6    -0.747695668215E+02   -0.13718E-02   -0.37569E-02   136   0.465E-01    0.331E-01
DAV:   7    -0.747698013381E+02   -0.23452E-03   -0.19335E-02   144   0.669E-01    0.289E-01
DAV:   8    -0.747692297862E+02    0.57155E-03   -0.15621E-02   152   0.381E-01    0.165E-01
DAV:   9    -0.747695653939E+02   -0.33561E-03   -0.95725E-03   128   0.142E-01    0.155E-01
DAV:  10    -0.747692952632E+02    0.27013E-03   -0.32912E-03   120   0.167E-01    0.303E-02
DAV:  11    -0.747694761710E+02   -0.18091E-03   -0.14047E-04    80   0.407E-02    0.263E-02
DAV:  12    -0.747695989463E+02   -0.12278E-03   -0.54315E-05    72   0.258E-02    0.119E-02
DAV:  13    -0.747696973871E+02   -0.98441E-04   -0.18193E-05    64   0.158E-02
  33 F= -.74769697E+02 E0= -.74679054E+02  d E =-.657528E+00
       N       E                     dE             d eps       ncg     rms          rms(c)
DAV:   1    -0.750066985772E+02   -0.23710E+00   -0.94960E+00   104   0.235E+01    0.119E+00
DAV:   2    -0.752336780924E+02   -0.22698E+00   -0.27521E+00   120   0.489E+00    0.465E+00
DAV:   3    -0.750724155245E+02    0.16126E+00   -0.21784E+00   152   0.245E+00    0.189E+00
DAV:   4    -0.750835705073E+02   -0.11155E-01   -0.37135E-01   136   0.140E+00    0.121E+00
DAV:   5    -0.750733320302E+02    0.10238E-01   -0.14912E-01   152   0.887E-01    0.102E+00
DAV:   6    -0.750670862874E+02    0.62457E-02   -0.11351E-01   144   0.937E-01    0.555E-01
DAV:   7    -0.750675001217E+02   -0.41383E-03   -0.64138E-02   152   0.510E-01    0.470E-01
DAV:   8    -0.750655286639E+02    0.19715E-02   -0.25024E-02   152   0.717E-01    0.172E-01
DAV:   9    -0.750655797709E+02   -0.51107E-04   -0.35629E-03   144   0.240E-01    0.857E-02
DAV:  10    -0.750656800040E+02   -0.10023E-03   -0.65553E-04    96   0.886E-02    0.301E-02
DAV:  11    -0.750657630822E+02   -0.83078E-04   -0.18381E-04    88   0.442E-02
  34 F= -.75065763E+02 E0= -.74977355E+02  d E =-.296066E+00
       N       E                     dE             d eps       ncg     rms          rms(c)
DAV:   1    -0.751076829351E+02   -0.42003E-01   -0.94496E+00   104   0.235E+01    0.115E+00
DAV:   2    -0.753056796467E+02   -0.19800E+00   -0.24927E+00   120   0.484E+00    0.425E+00
DAV:   3    -0.751780674789E+02    0.12761E+00   -0.20174E+00   152   0.232E+00    0.188E+00
DAV:   4    -0.751851121065E+02   -0.70446E-02   -0.37763E-01   136   0.120E+00    0.119E+00
DAV:   5    -0.751743774189E+02    0.10735E-01   -0.13819E-01   152   0.902E-01    0.987E-01
DAV:   6    -0.751688186310E+02    0.55588E-02   -0.10854E-01   144   0.866E-01    0.552E-01
DAV:   7    -0.751688497379E+02   -0.31107E-04   -0.55455E-02   144   0.512E-01    0.433E-01
DAV:   8    -0.751673587461E+02    0.14910E-02   -0.21055E-02   152   0.719E-01    0.174E-01
DAV:   9    -0.751673790470E+02   -0.20301E-04   -0.36151E-03   144   0.262E-01    0.887E-02
DAV:  10    -0.751674753369E+02   -0.96290E-04   -0.66477E-04    96   0.105E-01
  35 F= -.75167475E+02 E0= -.75081458E+02  d E =-.397778E+00
       N       E                     dE             d eps       ncg     rms          rms(c)
DAV:   1    -0.752930779948E+02   -0.12570E+00   -0.71693E+00   112   0.222E+01    0.135E+00
DAV:   2    -0.757812540958E+02   -0.48818E+00   -0.56735E+00   128   0.457E+00    0.412E+00
DAV:   3    -0.753216056733E+02    0.45965E+00   -0.52688E-01   144   0.162E+00    0.994E-01
DAV:   4    -0.753308825952E+02   -0.92769E-02   -0.20689E-01   144   0.137E+00    0.124E+00
DAV:   5    -0.753174839543E+02    0.13399E-01   -0.94898E-02   144   0.904E-01    0.473E-01
DAV:   6    -0.753202041102E+02   -0.27202E-02   -0.71294E-02   128   0.533E-01    0.462E-01
DAV:   7    -0.753196263864E+02    0.57772E-03   -0.61817E-02   136   0.415E-01    0.386E-01
DAV:   8    -0.753182369842E+02    0.13894E-02   -0.20506E-02   144   0.264E-01    0.198E-01
DAV:   9    -0.753181375392E+02    0.99445E-04   -0.40532E-03   152   0.278E-01    0.958E-02
DAV:  10    -0.753183727515E+02   -0.23521E-03   -0.14967E-03   120   0.132E-01    0.109E-01
DAV:  11    -0.753184113080E+02   -0.38556E-04   -0.25859E-04    88   0.784E-02
  36 F= -.75318411E+02 E0= -.75234246E+02  d E =-.150936E+00
       N       E                     dE             d eps       ncg     rms          rms(c)
DAV:   1    -0.753299067743E+02   -0.11534E-01   -0.31118E+00   112   0.146E+01    0.835E-01
DAV:   2    -0.755326841161E+02   -0.20278E+00   -0.23034E+00   128   0.300E+00    0.336E+00
DAV:   3    -0.753434437807E+02    0.18924E+00   -0.61682E-01   136   0.104E+00    0.733E-01
DAV:   4    -0.753506146616E+02   -0.71709E-02   -0.16270E-01   144   0.946E-01    0.969E-01
DAV:   5    -0.753417467889E+02    0.88679E-02   -0.50095E-02   144   0.628E-01    0.278E-01
DAV:   6    -0.753428457244E+02   -0.10989E-02   -0.15603E-02   128   0.376E-01    0.229E-01
DAV:   7    -0.753436773192E+02   -0.83159E-03   -0.20643E-02   152   0.308E-01    0.276E-01
DAV:   8    -0.753428532784E+02    0.82404E-03   -0.99422E-03   120   0.154E-01    0.914E-02
DAV:   9    -0.753429132512E+02   -0.59973E-04   -0.11366E-03   112   0.159E-01    0.456E-02
DAV:  10    -0.753430356241E+02   -0.12237E-03   -0.11240E-04    88   0.712E-02    0.201E-02
DAV:  11    -0.753430957067E+02   -0.60083E-04   -0.69662E-05    72   0.352E-02
  37 F= -.75343096E+02 E0= -.75259803E+02  d E =-.175620E+00
       N       E                     dE             d eps       ncg     rms          rms(c)
DAV:   1    -0.754262578344E+02   -0.83222E-01   -0.42262E+00   120   0.186E+01    0.667E-01
DAV:   2    -0.754961199642E+02   -0.69862E-01   -0.90673E-01   112   0.344E+00    0.164E+00
DAV:   3    -0.754647194023E+02    0.31401E-01   -0.52996E-01   160   0.924E-01    0.103E+00
DAV:   4    -0.754655709461E+02   -0.85154E-03   -0.14042E-01   136   0.367E-01    0.978E-01
DAV:   5    -0.754585926034E+02    0.69783E-02   -0.79558E-02   144   0.629E-01    0.503E-01
DAV:   6    -0.754590001323E+02   -0.40753E-03   -0.26268E-02   144   0.540E-01    0.329E-01
DAV:   7    -0.754591886164E+02   -0.18848E-03   -0.21154E-02   144   0.305E-01    0.248E-01
DAV:   8    -0.754588133120E+02    0.37530E-03   -0.92809E-03   144   0.211E-01    0.108E-01
DAV:   9    -0.754588550105E+02   -0.41698E-04   -0.14753E-03   144   0.200E-01    0.601E-02
DAV:  10    -0.754588873101E+02   -0.32300E-04   -0.32254E-04   112   0.109E-01
  38 F= -.75458887E+02 E0= -.75376699E+02  d E =-.115792E+00
       N       E                     dE             d eps       ncg     rms          rms(c)
DAV:   1    -0.753434909094E+02    0.11536E+00   -0.33991E+01   120   0.520E+01    0.187E+00
DAV:   2    -0.758353458031E+02   -0.49185E+00   -0.61248E+00   104   0.976E+00    0.348E+00
DAV:   3    -0.756783913579E+02    0.15695E+00   -0.29838E+00   152   0.225E+00    0.313E+00
DAV:   4    -0.756380624058E+02    0.40329E-01   -0.13984E+00   128   0.124E+00    0.207E+00
DAV:   5    -0.756041592707E+02    0.33903E-01   -0.47648E-01   144   0.155E+00    0.118E+00
DAV:   6    -0.756019641448E+02    0.21951E-02   -0.17841E-01   136   0.137E+00    0.870E-01
DAV:   7    -0.756035394030E+02   -0.15753E-02   -0.13124E-01   144   0.104E+00    0.713E-01
DAV:   8    -0.755987530412E+02    0.47864E-02   -0.86932E-02   144   0.525E-01    0.308E-01
DAV:   9    -0.755985701881E+02    0.18285E-03   -0.14150E-02   144   0.400E-01    0.149E-01
DAV:  10    -0.755988065175E+02   -0.23633E-03   -0.32345E-03   144   0.350E-01    0.109E-01
DAV:  11    -0.755988072893E+02   -0.77181E-06   -0.87979E-04   128   0.152E-01
  39 F= -.75598807E+02 E0= -.75520110E+02  d E =-.255712E+00
       N       E                     dE             d eps       ncg     rms          rms(c)
DAV:   1    -0.756889847020E+02   -0.90178E-01   -0.64273E+00   120   0.249E+01    0.782E-01
DAV:   2    -0.758285078466E+02   -0.13952E+00   -0.14155E+00   120   0.484E+00    0.288E+00
DAV:   3    -0.757710453143E+02    0.57463E-01   -0.10274E+00   152   0.144E+00    0.161E+00
DAV:   4    -0.757569637946E+02    0.14082E-01   -0.19670E-01   152   0.133E+00    0.458E-01
DAV:   5    -0.757570733172E+02   -0.10952E-03   -0.48500E-02   152   0.429E-01    0.438E-01
DAV:   6    -0.757566770517E+02    0.39627E-03   -0.26180E-02   144   0.576E-01    0.352E-01
DAV:   7    -0.757570045959E+02   -0.32754E-03   -0.19536E-02   144   0.343E-01    0.270E-01
DAV:   8    -0.757571130204E+02   -0.10842E-03   -0.12313E-02   160   0.328E-01    0.170E-01
DAV:   9    -0.757569577626E+02    0.15526E-03   -0.31283E-03   136   0.237E-01    0.473E-02
DAV:  10    -0.757571026117E+02   -0.14485E-03   -0.30163E-04    88   0.603E-02    0.231E-02
DAV:  11    -0.757572186684E+02   -0.11606E-03   -0.83786E-05    72   0.444E-02    0.136E-02
DAV:  12    -0.757573025614E+02   -0.83893E-04   -0.30346E-05    72   0.247E-02
  40 F= -.75757303E+02 E0= -.75680136E+02  d E =-.158495E+00
       N       E                     dE             d eps       ncg     rms          rms(c)
DAV:   1    -0.755171327649E+02    0.24009E+00   -0.58766E+01   120   0.730E+01    0.223E+00
DAV:   2    -0.765880027480E+02   -0.10709E+01   -0.11561E+01    96   0.144E+01    0.642E+00
DAV:   3    -0.762055190713E+02    0.38248E+00   -0.63491E+00   160   0.448E+00    0.323E+00
DAV:   4    -0.761304316499E+02    0.75087E-01   -0.10917E+00   152   0.345E+00    0.157E+00
DAV:   5    -0.761172947738E+02    0.13137E-01   -0.42256E-01   152   0.124E+00    0.124E+00
DAV:   6    -0.761155990837E+02    0.16957E-02   -0.26969E-01   152   0.146E+00    0.109E+00
DAV:   7    -0.761104640943E+02    0.51350E-02   -0.13879E-01   144   0.102E+00    0.584E-01
DAV:   8    -0.761162234609E+02   -0.57594E-02   -0.10346E-01   160   0.983E-01    0.626E-01
DAV:   9    -0.761112326346E+02    0.49908E-02   -0.46915E-02   144   0.688E-01    0.216E-01
DAV:  10    -0.761115783522E+02   -0.34572E-03   -0.38949E-03   144   0.199E-01    0.657E-02
DAV:  11    -0.761120377389E+02   -0.45939E-03   -0.47366E-04    96   0.962E-02    0.415E-02
DAV:  12    -0.761123414874E+02   -0.30375E-03   -0.15080E-04    80   0.497E-02    0.170E-02
DAV:  13    -0.761125939597E+02   -0.25247E-03   -0.71093E-05    80   0.346E-02    0.847E-03
DAV:  14    -0.761127975272E+02   -0.20357E-03   -0.36168E-05    72   0.204E-02    0.761E-03
DAV:  15    -0.761129764409E+02   -0.17891E-03   -0.33304E-05    80   0.155E-02    0.529E-03
DAV:  16    -0.761131564043E+02   -0.17996E-03   -0.32871E-05    80   0.148E-02    0.297E-03
DAV:  17    -0.761132552551E+02   -0.98851E-04   -0.18304E-05    72   0.102E-02
  41 F= -.76113255E+02 E0= -.76040368E+02  d E =-.514448E+00
       N       E                     dE             d eps       ncg     rms          rms(c)
DAV:   1    -0.735838647208E+02    0.25293E+01   -0.24336E+02   120   0.138E+02    0.453E+00
DAV:   2    -0.777234822419E+02   -0.41396E+01   -0.42317E+01   112   0.299E+01    0.108E+01
DAV:   3    -0.762543842639E+02    0.14691E+01   -0.14420E+01   152   0.109E+01    0.397E+00
DAV:   4    -0.763344596211E+02   -0.80075E-01   -0.46824E+00   144   0.559E+00    0.502E+00
DAV:   5    -0.760833192576E+02    0.25114E+00   -0.10923E+00   152   0.307E+00    0.173E+00
DAV:   6    -0.761268623601E+02   -0.43543E-01   -0.61521E-01   136   0.204E+00    0.223E+00
DAV:   7    -0.761094927614E+02    0.17370E-01   -0.64517E-01   144   0.205E+00    0.142E+00
DAV:   8    -0.761042650674E+02    0.52277E-02   -0.26635E-01   152   0.132E+00    0.864E-01
DAV:   9    -0.761028633271E+02    0.14017E-02   -0.13778E-01   144   0.893E-01    0.681E-01
DAV:  10    -0.760996507070E+02    0.32126E-02   -0.31253E-02   160   0.512E-01    0.225E-01
DAV:  11    -0.761005583525E+02   -0.90765E-03   -0.37602E-03   128   0.252E-01    0.959E-02
DAV:  12    -0.761015658001E+02   -0.10074E-02   -0.91990E-04   120   0.124E-01    0.536E-02
DAV:  13    -0.761019547223E+02   -0.38892E-03   -0.33088E-04    88   0.617E-02    0.297E-02
DAV:  14    -0.761023324161E+02   -0.37769E-03   -0.13575E-04    80   0.492E-02    0.141E-02
DAV:  15    -0.761027772859E+02   -0.44487E-03   -0.81644E-05    80   0.291E-02    0.810E-03
DAV:  16    -0.761031885765E+02   -0.41129E-03   -0.93378E-05    88   0.217E-02    0.898E-03
DAV:  17    -0.761034991540E+02   -0.31058E-03   -0.56118E-05    80   0.172E-02    0.507E-03
DAV:  18    -0.761036371457E+02   -0.13799E-03   -0.29211E-05    72   0.112E-02    0.233E-03
DAV:  19    -0.761037125552E+02   -0.75409E-04   -0.16833E-05    72   0.820E-03
  42 F= -.76103713E+02 E0= -.76032397E+02  d E =-.504905E+00
       N       E                     dE             d eps       ncg     rms          rms(c)
DAV:   1    -0.755209516894E+02    0.58269E+00   -0.66726E+01   120   0.793E+01    0.240E+00
DAV:   2    -0.766556946250E+02   -0.11347E+01   -0.10460E+01   136   0.169E+01    0.835E+00
DAV:   3    -0.763071901884E+02    0.34850E+00   -0.62670E+00   152   0.645E+00    0.299E+00
DAV:   4    -0.763261049606E+02   -0.18915E-01   -0.20959E+00   152   0.254E+00    0.300E+00
DAV:   5    -0.762613883384E+02    0.64717E-01   -0.92827E-01   144   0.156E+00    0.149E+00
DAV:   6    -0.762472163651E+02    0.14172E-01   -0.40322E-01   136   0.121E+00    0.804E-01
DAV:   7    -0.762525110102E+02   -0.52946E-02   -0.16322E-01   144   0.866E-01    0.782E-01
DAV:   8    -0.762465805388E+02    0.59305E-02   -0.93759E-02   144   0.105E+00    0.384E-01
DAV:   9    -0.762464933172E+02    0.87222E-04   -0.13812E-02   136   0.513E-01    0.166E-01
DAV:  10    -0.762469751070E+02   -0.48179E-03   -0.24854E-03   136   0.185E-01    0.748E-02
DAV:  11    -0.762471479658E+02   -0.17286E-03   -0.80314E-04    96   0.997E-02    0.285E-02
DAV:  12    -0.762473126207E+02   -0.16465E-03   -0.14258E-04    72   0.456E-02    0.156E-02
DAV:  13    -0.762474491382E+02   -0.13652E-03   -0.50892E-05    72   0.273E-02    0.122E-02
DAV:  14    -0.762476138671E+02   -0.16473E-03   -0.33739E-05    72   0.184E-02    0.486E-03
DAV:  15    -0.762477237315E+02   -0.10986E-03   -0.18008E-05    72   0.128E-02    0.495E-03
DAV:  16    -0.762478517426E+02   -0.12801E-03   -0.19602E-05    72   0.111E-02    0.240E-03
DAV:  17    -0.762479235885E+02   -0.71846E-04   -0.13781E-05    72   0.855E-03
  43 F= -.76247924E+02 E0= -.76177302E+02  d E =-.649116E+00
       N       E                     dE             d eps       ncg     rms          rms(c)
DAV:   1    -0.763594915657E+02   -0.11164E+00   -0.20899E+01   120   0.441E+01    0.146E+00
DAV:   2    -0.767191560191E+02   -0.35966E+00   -0.41381E+00   120   0.859E+00    0.343E+00
DAV:   3    -0.765659598191E+02    0.15320E+00   -0.14440E+00   152   0.266E+00    0.186E+00
DAV:   4    -0.765580330086E+02    0.79268E-02   -0.67076E-01   144   0.161E+00    0.144E+00
DAV:   5    -0.765436981581E+02    0.14335E-01   -0.13835E-01   136   0.118E+00    0.750E-01
DAV:   6    -0.765454046960E+02   -0.17065E-02   -0.99328E-02   152   0.111E+00    0.669E-01
DAV:   7    -0.765422975428E+02    0.31072E-02   -0.43933E-02   136   0.105E+00    0.300E-01
DAV:   8    -0.765433185041E+02   -0.10210E-02   -0.15114E-02   144   0.272E-01    0.247E-01
DAV:   9    -0.765427563098E+02    0.56219E-03   -0.10160E-02   136   0.121E-01    0.114E-01
DAV:  10    -0.765428160594E+02   -0.59750E-04   -0.17895E-03   104   0.112E-01    0.493E-02
DAV:  11    -0.765429499767E+02   -0.13392E-03   -0.22920E-04    72   0.617E-02    0.290E-02
DAV:  12    -0.765430159295E+02   -0.65953E-04   -0.69400E-05    72   0.303E-02
  44 F= -.76543016E+02 E0= -.76472786E+02  d E =-.295092E+00
       N       E                     dE             d eps       ncg     rms          rms(c)
DAV:   1    -0.764026109765E+02    0.14034E+00   -0.31903E+01   120   0.543E+01    0.181E+00
DAV:   2    -0.769097682159E+02   -0.50716E+00   -0.59968E+00    96   0.108E+01    0.366E+00
DAV:   3    -0.767001422962E+02    0.20963E+00   -0.16501E+00   128   0.388E+00    0.173E+00
DAV:   4    -0.767124365646E+02   -0.12294E-01   -0.93526E-01   136   0.194E+00    0.202E+00
DAV:   5    -0.766808729310E+02    0.31564E-01   -0.23474E-01   144   0.145E+00    0.857E-01
DAV:   6    -0.766845941396E+02   -0.37212E-02   -0.15565E-01   144   0.133E+00    0.855E-01
DAV:   7    -0.766780712223E+02    0.65229E-02   -0.77220E-02   136   0.111E+00    0.306E-01
DAV:   8    -0.766792599922E+02   -0.11888E-02   -0.81944E-03   128   0.331E-01    0.153E-01
DAV:   9    -0.766795491296E+02   -0.28914E-03   -0.24960E-03   128   0.136E-01    0.714E-02
DAV:  10    -0.766797979879E+02   -0.24886E-03   -0.22968E-03    88   0.808E-02    0.922E-02
DAV:  11    -0.766797722104E+02    0.25777E-04   -0.10754E-03    72   0.480E-02    0.283E-02
DAV:  12    -0.766799407958E+02   -0.16859E-03   -0.63323E-05    72   0.337E-02    0.144E-02
DAV:  13    -0.766800780609E+02   -0.13727E-03   -0.38180E-05    72   0.257E-02    0.949E-03
DAV:  14    -0.766802191335E+02   -0.14107E-03   -0.33497E-05    72   0.152E-02    0.653E-03
DAV:  15    -0.766803188219E+02   -0.99688E-04   -0.19410E-05    72   0.113E-02
  45 F= -.76680319E+02 E0= -.76610330E+02  d E =-.432395E+00
       N       E                     dE             d eps       ncg     rms          rms(c)
DAV:   1    -0.767893578450E+02   -0.10914E+00   -0.44294E+00   112   0.203E+01    0.618E-01
DAV:   2    -0.768420893175E+02   -0.52731E-01   -0.58055E-01    96   0.405E+00    0.112E+00
DAV:   3    -0.768408293884E+02    0.12599E-02   -0.27403E-01   136   0.158E+00    0.136E+00
DAV:   4    -0.768294074051E+02    0.11422E-01   -0.15572E-01   144   0.656E-01    0.525E-01
DAV:   5    -0.768301459665E+02   -0.73856E-03   -0.39959E-02   144   0.595E-01    0.408E-01
DAV:   6    -0.768293509379E+02    0.79503E-03   -0.20574E-02   144   0.471E-01    0.245E-01
DAV:   7    -0.768297804286E+02   -0.42949E-03   -0.11754E-02   144   0.388E-01    0.160E-01
DAV:   8    -0.768298410812E+02   -0.60653E-04   -0.96887E-03   128   0.136E-01    0.150E-01
DAV:   9    -0.768296496164E+02    0.19146E-03   -0.28080E-03   120   0.108E-01    0.338E-02
DAV:  10    -0.768297279694E+02   -0.78353E-04   -0.15030E-04    80   0.400E-02
  46 F= -.76829728E+02 E0= -.76759573E+02  d E =-.149409E+00
       N       E                     dE             d eps       ncg     rms          rms(c)
DAV:   1    -0.768158989742E+02    0.13751E-01   -0.40226E+01   104   0.599E+01    0.187E+00
DAV:   2    -0.773354730709E+02   -0.51957E+00   -0.55262E+00    96   0.122E+01    0.371E+00
DAV:   3    -0.772438403374E+02    0.91633E-01   -0.28681E+00   136   0.425E+00    0.313E+00
DAV:   4    -0.772077359689E+02    0.36104E-01   -0.14061E+00   152   0.176E+00    0.206E+00
DAV:   5    -0.771886009705E+02    0.19135E-01   -0.52296E-01   136   0.161E+00    0.149E+00
DAV:   6    -0.771768202881E+02    0.11781E-01   -0.22172E-01   152   0.170E+00    0.733E-01
DAV:   7    -0.771782979392E+02   -0.14777E-02   -0.10622E-01   136   0.814E-01    0.454E-01
DAV:   8    -0.771802690969E+02   -0.19712E-02   -0.92494E-02   152   0.444E-01    0.534E-01
DAV:   9    -0.771768387538E+02    0.34303E-02   -0.31593E-02   128   0.368E-01    0.991E-02
DAV:  10    -0.771775042921E+02   -0.66554E-03   -0.11941E-03   120   0.116E-01    0.388E-02
DAV:  11    -0.771777104568E+02   -0.20616E-03   -0.16708E-04    80   0.619E-02    0.215E-02
DAV:  12    -0.771778540757E+02   -0.14362E-03   -0.77471E-05    72   0.370E-02    0.150E-02
DAV:  13    -0.771779857638E+02   -0.13169E-03   -0.37156E-05    72   0.198E-02    0.687E-03
DAV:  14    -0.771781769797E+02   -0.19122E-03   -0.38302E-05    80   0.186E-02    0.515E-03
DAV:  15    -0.771782779680E+02   -0.10099E-03   -0.13546E-05    72   0.119E-02    0.396E-03
DAV:  16    -0.771783570837E+02   -0.79116E-04   -0.14354E-05    72   0.875E-03
  47 F= -.77178357E+02 E0= -.77106271E+02  d E =-.498038E+00
       N       E                     dE             d eps       ncg     rms          rms(c)
DAV:   1    -0.758389106256E+02    0.13394E+01   -0.16489E+02   104   0.115E+02    0.402E+00
DAV:   2    -0.787988741959E+02   -0.29600E+01   -0.30510E+01    96   0.249E+01    0.824E+00
DAV:   3    -0.774949041609E+02    0.13040E+01   -0.71584E+00   144   0.108E+01    0.395E+00
DAV:   4    -0.774217312799E+02    0.73173E-01   -0.44663E+00   136   0.301E+00    0.368E+00
DAV:   5    -0.774017034245E+02    0.20028E-01   -0.25429E+00   144   0.269E+00    0.386E+00
DAV:   6    -0.773117889948E+02    0.89914E-01   -0.18255E+00   144   0.190E+00    0.199E+00
DAV:   7    -0.772961158510E+02    0.15673E-01   -0.50327E-01   136   0.187E+00    0.109E+00
DAV:   8    -0.773044443318E+02   -0.83285E-02   -0.21647E-01   144   0.181E+00    0.108E+00
DAV:   9    -0.772927527513E+02    0.11692E-01   -0.93600E-02   144   0.997E-01    0.226E-01
DAV:  10    -0.772944103709E+02   -0.16576E-02   -0.86138E-03   136   0.284E-01    0.150E-01
DAV:  11    -0.772950875704E+02   -0.67720E-03   -0.18659E-03   112   0.103E-01    0.644E-02
DAV:  12    -0.772955266868E+02   -0.43912E-03   -0.70265E-04    80   0.610E-02    0.463E-02
DAV:  13    -0.772958050188E+02   -0.27833E-03   -0.47722E-04    80   0.332E-02    0.264E-02
DAV:  14    -0.772960487615E+02   -0.24374E-03   -0.98037E-05    80   0.258E-02    0.112E-02
DAV:  15    -0.772963731276E+02   -0.32437E-03   -0.57869E-05    72   0.194E-02    0.612E-03
DAV:  16    -0.772965904122E+02   -0.21728E-03   -0.31173E-05    80   0.132E-02    0.501E-03
DAV:  17    -0.772968245032E+02   -0.23409E-03   -0.45999E-05    72   0.141E-02    0.269E-03
DAV:  18    -0.772969024579E+02   -0.77955E-04   -0.13495E-05    72   0.894E-03
  48 F= -.77296902E+02 E0= -.77213991E+02  d E =-.616584E+00
       N       E                     dE             d eps       ncg     rms          rms(c)
DAV:   1    -0.771151653353E+02    0.18166E+00   -0.26127E+01   104   0.479E+01    0.161E+00
DAV:   2    -0.776798176160E+02   -0.56465E+00   -0.58797E+00   112   0.100E+01    0.506E+00
DAV:   3    -0.773927558346E+02    0.28706E+00   -0.26277E+00   136   0.323E+00    0.226E+00
DAV:   4    -0.773617335168E+02    0.31022E-01   -0.52091E-01   144   0.244E+00    0.116E+00
DAV:   5    -0.773588765976E+02    0.28569E-02   -0.16579E-01   152   0.128E+00    0.826E-01
DAV:   6    -0.773577230682E+02    0.11535E-02   -0.11834E-01   136   0.868E-01    0.645E-01
DAV:   7    -0.773592082430E+02   -0.14852E-02   -0.85514E-02   136   0.619E-01    0.506E-01
[...]
DAV:   5    -0.935252037479E+02   -0.51648E-04   -0.84023E-04   112   0.239E-01
 268 F= -.93525204E+02 E0= -.93525047E+02  d E =-.657780E-02
       N       E                     dE             d eps       ncg     rms          rms(c)
DAV:   1    -0.935110633902E+02    0.14089E-01   -0.49774E+00   104   0.167E+01    0.577E-01
DAV:   2    -0.935328463926E+02   -0.21783E-01   -0.35464E-01   104   0.318E+00    0.426E-01
DAV:   3    -0.935326809919E+02    0.16540E-03   -0.37605E-02   160   0.142E+00    0.357E-01
DAV:   4    -0.935314328254E+02    0.12482E-02   -0.13060E-02   136   0.880E-01    0.220E-01
DAV:   5    -0.935316282956E+02   -0.19547E-03   -0.65316E-03   136   0.655E-01    0.171E-01
DAV:   6    -0.935313537563E+02    0.27454E-03   -0.31382E-03   136   0.340E-01    0.396E-02
DAV:   7    -0.935314389085E+02   -0.85152E-04   -0.26857E-04    88   0.867E-02
 269 F= -.93531439E+02 E0= -.93531314E+02  d E =-.128130E-01
       N       E                     dE             d eps       ncg     rms          rms(c)
DAV:   1    -0.935353708821E+02   -0.40171E-02   -0.12076E+00   104   0.772E+00    0.277E-01
DAV:   2    -0.935398723974E+02   -0.45015E-02   -0.72347E-02   104   0.140E+00    0.195E-01
DAV:   3    -0.935399464541E+02   -0.74057E-04   -0.76521E-03   152   0.660E-01    0.188E-01
DAV:   4    -0.935395930176E+02    0.35344E-03   -0.34282E-03   136   0.477E-01    0.989E-02
DAV:   5    -0.935396581900E+02   -0.65172E-04   -0.13490E-03   128   0.285E-01    0.696E-02
DAV:   6    -0.935396255381E+02    0.32652E-04   -0.62162E-04   104   0.149E-01
 270 F= -.93539626E+02 E0= -.93539516E+02  d E =-.818663E-02
       N       E                     dE             d eps       ncg     rms          rms(c)
DAV:   1    -0.935349677885E+02    0.46904E-02   -0.24344E+00   104   0.110E+01    0.393E-01
DAV:   2    -0.935441428296E+02   -0.91750E-02   -0.14579E-01   104   0.200E+00    0.283E-01
DAV:   3    -0.935442785806E+02   -0.13575E-03   -0.15758E-02   160   0.997E-01    0.274E-01
DAV:   4    -0.935434619838E+02    0.81660E-03   -0.69522E-03   136   0.671E-01    0.135E-01
DAV:   5    -0.935435738353E+02   -0.11185E-03   -0.26184E-03   136   0.388E-01    0.955E-02
DAV:   6    -0.935434924984E+02    0.81337E-04   -0.12314E-03   112   0.203E-01    0.296E-02
DAV:   7    -0.935435369684E+02   -0.44470E-04   -0.10796E-04    72   0.615E-02
 271 F= -.93543537E+02 E0= -.93543448E+02  d E =-.120981E-01
       N       E                     dE             d eps       ncg     rms          rms(c)
DAV:   1    -0.935494232634E+02   -0.59308E-02   -0.28924E-01    96   0.374E+00    0.143E-01
DAV:   2    -0.935502743113E+02   -0.85105E-03   -0.15953E-02    96   0.662E-01    0.886E-02
DAV:   3    -0.935503006881E+02   -0.26377E-04   -0.16107E-03   152   0.259E-01    0.793E-02
DAV:   4    -0.935502791423E+02    0.21546E-04   -0.78169E-04    96   0.248E-01
 272 F= -.93550279E+02 E0= -.93550201E+02  d E =-.674217E-02
       N       E                     dE             d eps       ncg     rms          rms(c)
DAV:   1    -0.935520256656E+02   -0.17250E-02   -0.80986E-01    96   0.624E+00    0.248E-01
DAV:   2    -0.935543386504E+02   -0.23130E-02   -0.44681E-02    96   0.112E+00    0.156E-01
DAV:   3    -0.935544984421E+02   -0.15979E-03   -0.51091E-03   152   0.526E-01    0.165E-01
DAV:   4    -0.935542579400E+02    0.24050E-03   -0.26427E-03   128   0.440E-01    0.868E-02
DAV:   5    -0.935542436378E+02    0.14302E-04   -0.41774E-04    88   0.180E-01
 273 F= -.93554244E+02 E0= -.93554180E+02  d E =-.107067E-01
       N       E                     dE             d eps       ncg     rms          rms(c)
DAV:   1    -0.935593673374E+02   -0.51094E-02   -0.36558E-01    96   0.442E+00    0.151E-01
DAV:   2    -0.935608912780E+02   -0.15239E-02   -0.23487E-02   112   0.811E-01    0.112E-01
DAV:   3    -0.935608636484E+02    0.27630E-04   -0.24714E-03   152   0.274E-01    0.784E-02
DAV:   4    -0.935608434591E+02    0.20189E-04   -0.64583E-04   104   0.173E-01
 274 F= -.93560843E+02 E0= -.93560788E+02  d E =-.659982E-02
       N       E                     dE             d eps       ncg     rms          rms(c)
DAV:   1    -0.935577363604E+02    0.31273E-02   -0.23542E+00    96   0.112E+01    0.390E-01
DAV:   2    -0.935676988643E+02   -0.99625E-02   -0.15023E-01    96   0.212E+00    0.318E-01
DAV:   3    -0.935675170076E+02    0.18186E-03   -0.17585E-02   152   0.105E+00    0.249E-01
DAV:   4    -0.935670687685E+02    0.44824E-03   -0.57425E-03   128   0.620E-01    0.155E-01
DAV:   5    -0.935671863680E+02   -0.11760E-03   -0.32150E-03   136   0.425E-01    0.105E-01
DAV:   6    -0.935670995787E+02    0.86789E-04   -0.14793E-03   128   0.223E-01    0.271E-02
DAV:   7    -0.935671291407E+02   -0.29562E-04   -0.10302E-04    72   0.604E-02
 275 F= -.93567129E+02 E0= -.93567089E+02  d E =-.128855E-01
       N       E                     dE             d eps       ncg     rms          rms(c)
DAV:   1    -0.935718122683E+02   -0.47127E-02   -0.72771E-01    96   0.589E+00    0.222E-01
DAV:   2    -0.935740143930E+02   -0.22021E-02   -0.41667E-02   120   0.107E+00    0.138E-01
DAV:   3    -0.935740937112E+02   -0.79318E-04   -0.43039E-03   144   0.404E-01    0.124E-01
DAV:   4    -0.935739818734E+02    0.11184E-03   -0.18760E-03   128   0.322E-01    0.770E-02
DAV:   5    -0.935740142730E+02   -0.32400E-04   -0.64748E-04   104   0.231E-01
 276 F= -.93574014E+02 E0= -.93573982E+02  d E =-.688513E-02
       N       E                     dE             d eps       ncg     rms          rms(c)
DAV:   1    -0.935741039766E+02   -0.12210E-03   -0.53805E-01    96   0.506E+00    0.195E-01
DAV:   2    -0.935756949517E+02   -0.15910E-02   -0.30885E-02   120   0.924E-01    0.120E-01
DAV:   3    -0.935757611305E+02   -0.66179E-04   -0.31617E-03   144   0.315E-01    0.100E-01
DAV:   4    -0.935757187266E+02    0.42404E-04   -0.14111E-03   128   0.255E-01    0.660E-02
DAV:   5    -0.935757461887E+02   -0.27462E-04   -0.46653E-04   104   0.196E-01
 277 F= -.93575746E+02 E0= -.93575720E+02  d E =-.861705E-02
       N       E                     dE             d eps       ncg     rms          rms(c)
DAV:   1    -0.935803201374E+02   -0.46014E-02   -0.53387E-01    96   0.509E+00    0.177E-01
DAV:   2    -0.935820800296E+02   -0.17599E-02   -0.28167E-02    96   0.884E-01    0.110E-01
DAV:   3    -0.935821152262E+02   -0.35197E-04   -0.23013E-03   144   0.237E-01    0.744E-02
DAV:   4    -0.935821328107E+02   -0.17585E-04   -0.10304E-03   112   0.167E-01    0.596E-02
DAV:   5    -0.935821198668E+02    0.12944E-04   -0.39870E-04    96   0.126E-01
 278 F= -.93582120E+02 E0= -.93582098E+02  d E =-.637368E-02
       N       E                     dE             d eps       ncg     rms          rms(c)
DAV:   1    -0.935814887783E+02    0.64403E-03   -0.14082E+00    96   0.827E+00    0.285E-01
DAV:   2    -0.935861966094E+02   -0.47078E-02   -0.75200E-02    96   0.144E+00    0.190E-01
DAV:   3    -0.935863319897E+02   -0.13538E-03   -0.76734E-03   152   0.564E-01    0.166E-01
DAV:   4    -0.935861318908E+02    0.20010E-03   -0.32314E-03   128   0.431E-01    0.108E-01
DAV:   5    -0.935861890001E+02   -0.57109E-04   -0.14300E-03   128   0.325E-01    0.818E-02
DAV:   6    -0.935861080722E+02    0.80928E-04   -0.69060E-04   104   0.176E-01
 279 F= -.93586108E+02 E0= -.93586091E+02  d E =-.103619E-01
       N       E                     dE             d eps       ncg     rms          rms(c)
DAV:   1    -0.935895931114E+02   -0.34041E-02   -0.32245E-01   104   0.427E+00    0.135E-01
DAV:   2    -0.935910236652E+02   -0.14306E-02   -0.19188E-02   112   0.752E-01    0.820E-02
DAV:   3    -0.935910791428E+02   -0.55478E-04   -0.12678E-03   144   0.214E-01    0.603E-02
DAV:   4    -0.935911213226E+02   -0.42180E-04   -0.58238E-04   104   0.224E-01
 280 F= -.93591121E+02 E0= -.93591105E+02  d E =-.501325E-02
       N       E                     dE             d eps       ncg     rms          rms(c)
DAV:   1    -0.935852317750E+02    0.58474E-02   -0.25099E+00   104   0.119E+01    0.376E-01
DAV:   2    -0.935962261575E+02   -0.10994E-01   -0.14824E-01    96   0.209E+00    0.225E-01
DAV:   3    -0.935964666347E+02   -0.24048E-03   -0.95427E-03   144   0.561E-01    0.154E-01
DAV:   4    -0.935968797580E+02   -0.41312E-03   -0.45807E-03   136   0.629E-01    0.199E-01
DAV:   5    -0.935964090265E+02    0.47073E-03   -0.20884E-03   128   0.383E-01    0.264E-02
DAV:   6    -0.935964870770E+02   -0.78051E-04   -0.18384E-04    88   0.735E-02
 281 F= -.93596487E+02 E0= -.93596474E+02  d E =-.103790E-01
       N       E                     dE             d eps       ncg     rms          rms(c)
DAV:   1    -0.935979598138E+02   -0.15508E-02   -0.40815E-01   104   0.517E+00    0.150E-01
DAV:   2    -0.936003366983E+02   -0.23769E-02   -0.30225E-02    96   0.941E-01    0.930E-02
DAV:   3    -0.936004353027E+02   -0.98604E-04   -0.21519E-03   144   0.284E-01    0.802E-02
DAV:   4    -0.936004135390E+02    0.21764E-04   -0.70057E-04   112   0.211E-01
 282 F= -.93600414E+02 E0= -.93600401E+02  d E =-.392646E-02
       N       E                     dE             d eps       ncg     rms          rms(c)
DAV:   1    -0.935920122796E+02    0.84230E-02   -0.18714E+00   104   0.111E+01    0.329E-01
DAV:   2    -0.936028789924E+02   -0.10867E-01   -0.13798E-01    96   0.205E+00    0.222E-01
DAV:   3    -0.936035442558E+02   -0.66526E-03   -0.11633E-02   152   0.924E-01    0.246E-01
DAV:   4    -0.936029094974E+02    0.63476E-03   -0.40645E-03   136   0.540E-01    0.963E-02
DAV:   5    -0.936031430345E+02   -0.23354E-03   -0.10149E-03   128   0.222E-01    0.442E-02
DAV:   6    -0.936031481807E+02   -0.51462E-05   -0.45562E-04    96   0.120E-01
 283 F= -.93603148E+02 E0= -.93603135E+02  d E =-.666110E-02
       N       E                     dE             d eps       ncg     rms          rms(c)
DAV:   1    -0.936024952997E+02    0.64773E-03   -0.81533E-01   104   0.724E+00    0.227E-01
DAV:   2    -0.936072611348E+02   -0.47658E-02   -0.65194E-02   112   0.136E+00    0.154E-01
DAV:   3    -0.936074149838E+02   -0.15385E-03   -0.59823E-03   152   0.506E-01    0.133E-01
DAV:   4    -0.936072827979E+02    0.13219E-03   -0.17344E-03   128   0.338E-01    0.788E-02
DAV:   5    -0.936073919500E+02   -0.10915E-03   -0.88545E-04   104   0.256E-01    0.709E-02
DAV:   6    -0.936073523677E+02    0.39582E-04   -0.52951E-04    96   0.160E-01
 284 F= -.93607352E+02 E0= -.93607337E+02  d E =-.420419E-02
       N       E                     dE             d eps       ncg     rms          rms(c)
DAV:   1    -0.936058872008E+02    0.15047E-02   -0.37700E-01   104   0.493E+00    0.155E-01
DAV:   2    -0.936080846904E+02   -0.21975E-02   -0.30262E-02   112   0.932E-01    0.107E-01
DAV:   3    -0.936081589625E+02   -0.74272E-04   -0.29156E-03   152   0.369E-01    0.940E-02
DAV:   4    -0.936080930538E+02    0.65909E-04   -0.78012E-04   112   0.239E-01
 285 F= -.93608093E+02 E0= -.93608075E+02  d E =-.494487E-02
       N       E                     dE             d eps       ncg     rms          rms(c)
DAV:   1    -0.936100457736E+02   -0.18868E-02   -0.41956E-01   104   0.492E+00    0.173E-01
DAV:   2    -0.936120214313E+02   -0.19757E-02   -0.27811E-02    96   0.976E-01    0.158E-01
DAV:   3    -0.936119179313E+02    0.10350E-03   -0.36641E-03   152   0.548E-01    0.114E-01
DAV:   4    -0.936118663896E+02    0.51542E-04   -0.11431E-03   128   0.287E-01    0.596E-02
DAV:   5    -0.936119163856E+02   -0.49996E-04   -0.64282E-04   104   0.172E-01
 286 F= -.93611916E+02 E0= -.93611899E+02  d E =-.382333E-02
       N       E                     dE             d eps       ncg     rms          rms(c)
DAV:   1    -0.936115362234E+02    0.33017E-03   -0.28229E-01   104   0.404E+00    0.133E-01
DAV:   2    -0.936128075797E+02   -0.12714E-02   -0.17855E-02    96   0.736E-01    0.898E-02
DAV:   3    -0.936129085552E+02   -0.10098E-03   -0.16820E-03   152   0.330E-01    0.957E-02
DAV:   4    -0.936128269001E+02    0.81655E-04   -0.78819E-04   112   0.251E-01
 287 F= -.93612827E+02 E0= -.93612809E+02  d E =-.473385E-02
       N       E                     dE             d eps       ncg     rms          rms(c)
DAV:   1    -0.936141243058E+02   -0.12158E-02   -0.39271E-01   104   0.494E+00    0.151E-01
DAV:   2    -0.936160326247E+02   -0.19083E-02   -0.25376E-02    96   0.861E-01    0.933E-02
DAV:   3    -0.936161117769E+02   -0.79152E-04   -0.20500E-03   144   0.219E-01    0.750E-02
DAV:   4    -0.936161148210E+02   -0.30442E-05   -0.87972E-04   104   0.145E-01
 288 F= -.93616115E+02 E0= -.93616095E+02  d E =-.328792E-02
       N       E                     dE             d eps       ncg     rms          rms(c)
DAV:   1    -0.936152098428E+02    0.90193E-03   -0.36383E-01   104   0.477E+00    0.145E-01
DAV:   2    -0.936169714575E+02   -0.17616E-02   -0.23070E-02    96   0.829E-01    0.900E-02
DAV:   3    -0.936170880644E+02   -0.11661E-03   -0.17798E-03   144   0.289E-01    0.879E-02
DAV:   4    -0.936170630906E+02    0.24974E-04   -0.82954E-04   112   0.254E-01
 289 F= -.93617063E+02 E0= -.93617042E+02  d E =-.423619E-02
       N       E                     dE             d eps       ncg     rms          rms(c)
DAV:   1    -0.936180164798E+02   -0.92842E-03   -0.31567E-01   104   0.443E+00    0.142E-01
DAV:   2    -0.936196243589E+02   -0.16079E-02   -0.21727E-02   112   0.822E-01    0.103E-01
DAV:   3    -0.936196778383E+02   -0.53479E-04   -0.23684E-03   144   0.336E-01    0.880E-02
DAV:   4    -0.936196526126E+02    0.25226E-04   -0.72834E-04   104   0.250E-01
 290 F= -.93619653E+02 E0= -.93619630E+02  d E =-.258952E-02
       N       E                     dE             d eps       ncg     rms          rms(c)
DAV:   1    -0.936183748151E+02    0.13030E-02   -0.40693E-01   104   0.503E+00    0.166E-01
DAV:   2    -0.936204224007E+02   -0.20476E-02   -0.27540E-02   112   0.944E-01    0.115E-01
DAV:   3    -0.936206049940E+02   -0.18259E-03   -0.30977E-03   152   0.453E-01    0.126E-01
DAV:   4    -0.936204565299E+02    0.14846E-03   -0.11643E-03   112   0.323E-01    0.472E-02
DAV:   5    -0.936205143539E+02   -0.57824E-04   -0.20504E-04    80   0.111E-01
 291 F= -.93620514E+02 E0= -.93620490E+02  d E =-.345126E-02
       N       E                     dE             d eps       ncg     rms          rms(c)
DAV:   1    -0.936216885460E+02   -0.12320E-02   -0.28950E-01   104   0.399E+00    0.130E-01
DAV:   2    -0.936229232484E+02   -0.12347E-02   -0.17886E-02    96   0.718E-01    0.810E-02
DAV:   3    -0.936230150760E+02   -0.91828E-04   -0.18046E-03   144   0.292E-01    0.845E-02
DAV:   4    -0.936229514886E+02    0.63587E-04   -0.63865E-04   104   0.209E-01
 292 F= -.93622951E+02 E0= -.93622927E+02  d E =-.243713E-02
       N       E                     dE             d eps       ncg     rms          rms(c)
DAV:   1    -0.936205386738E+02    0.24764E-02   -0.86474E-01    96   0.689E+00    0.227E-01
DAV:   2    -0.936242590894E+02   -0.37204E-02   -0.52777E-02   104   0.127E+00    0.155E-01
DAV:   3    -0.936246009141E+02   -0.34182E-03   -0.56483E-03   152   0.676E-01    0.177E-01
DAV:   4    -0.936242629799E+02    0.33793E-03   -0.22750E-03   120   0.406E-01    0.628E-02
DAV:   5    -0.936243504867E+02   -0.87507E-04   -0.30769E-04    80   0.145E-01
 293 F= -.93624350E+02 E0= -.93624326E+02  d E =-.383613E-02
       N       E                     dE             d eps       ncg     rms          rms(c)
DAV:   1    -0.936247109098E+02   -0.44793E-03   -0.49864E-01    96   0.512E+00    0.170E-01
DAV:   2    -0.936268523127E+02   -0.21414E-02   -0.29743E-02   120   0.891E-01    0.109E-01
DAV:   3    -0.936269318097E+02   -0.79497E-04   -0.22366E-03   152   0.349E-01    0.104E-01
DAV:   4    -0.936268741506E+02    0.57659E-04   -0.11707E-03   112   0.299E-01    0.643E-02
DAV:   5    -0.936268910845E+02   -0.16934E-04   -0.34745E-04    96   0.178E-01
 294 F= -.93626891E+02 E0= -.93626866E+02  d E =-.254060E-02
       N       E                     dE             d eps       ncg     rms          rms(c)
DAV:   1    -0.936268086191E+02    0.65532E-04   -0.49182E-02    96   0.161E+00    0.574E-02
DAV:   2    -0.936270273925E+02   -0.21877E-03   -0.30689E-03   120   0.288E-01    0.390E-02
DAV:   3    -0.936270338567E+02   -0.64642E-05   -0.26613E-04    96   0.883E-02
 295 F= -.93627034E+02 E0= -.93627008E+02  d E =-.268337E-02
       N       E                     dE             d eps       ncg     rms          rms(c)
DAV:   1    -0.936271111085E+02   -0.83716E-04   -0.35252E-01    96   0.432E+00    0.146E-01
DAV:   2    -0.936288766537E+02   -0.17655E-02   -0.23743E-02   112   0.763E-01    0.887E-02
DAV:   3    -0.936289146417E+02   -0.37988E-04   -0.14303E-03   152   0.179E-01    0.518E-02
DAV:   4    -0.936289625105E+02   -0.47869E-04   -0.20282E-04    80   0.111E-01
 296 F= -.93628963E+02 E0= -.93628939E+02  d E =-.192865E-02
       N       E                     dE             d eps       ncg     rms          rms(c)
DAV:   1    -0.936289189801E+02   -0.43384E-05   -0.17486E-02    96   0.982E-01    0.412E-02
DAV:   2    -0.936290407456E+02   -0.12177E-03   -0.13594E-03   112   0.255E-01    0.534E-02
DAV:   3    -0.936290035869E+02    0.37159E-04   -0.23630E-04    80   0.165E-01
 297 F= -.93629004E+02 E0= -.93628980E+02  d E =-.196973E-02
       N       E                     dE             d eps       ncg     rms          rms(c)
DAV:   1    -0.936294919232E+02   -0.45118E-03   -0.12964E-01   104   0.276E+00    0.890E-02
DAV:   2    -0.936302324924E+02   -0.74057E-03   -0.96439E-03   120   0.512E-01    0.614E-02
DAV:   3    -0.936302689972E+02   -0.36505E-04   -0.72510E-04   128   0.221E-01
 298 F= -.93630269E+02 E0= -.93630247E+02  d E =-.126541E-02
       N       E                     dE             d eps       ncg     rms          rms(c)
DAV:   1    -0.936293340943E+02    0.89840E-03   -0.23320E-01   104   0.371E+00    0.130E-01
DAV:   2    -0.936306050840E+02   -0.12710E-02   -0.17214E-02   120   0.685E-01    0.822E-02
DAV:   3    -0.936306376054E+02   -0.32521E-04   -0.93100E-04   136   0.168E-01
 299 F= -.93630638E+02 E0= -.93630617E+02  d E =-.163402E-02
       N       E                     dE             d eps       ncg     rms          rms(c)
DAV:   1    -0.936310182001E+02   -0.41312E-03   -0.10779E-01    96   0.241E+00    0.113E-01
DAV:   2    -0.936319231762E+02   -0.90498E-03   -0.10328E-02   144   0.744E-01    0.183E-01
DAV:   3    -0.936314272703E+02    0.49591E-03   -0.28294E-03   120   0.463E-01    0.549E-02
DAV:   4    -0.936315099203E+02   -0.82650E-04   -0.41542E-04    96   0.142E-01
 300 F= -.93631510E+02 E0= -.93631491E+02  d E =-.872315E-03
       N       E                     dE             d eps       ncg     rms          rms(c)
DAV:   1    -0.936312918541E+02    0.13542E-03   -0.78977E-02    96   0.206E+00    0.713E-02
DAV:   2    -0.936317161998E+02   -0.42435E-03   -0.52866E-03   128   0.391E-01    0.496E-02
DAV:   3    -0.936317305618E+02   -0.14362E-04   -0.30923E-04    96   0.155E-01
 301 F= -.93631731E+02 E0= -.93631713E+02  d E =-.109296E-02
       N       E                     dE             d eps       ncg     rms          rms(c)
DAV:   1    -0.936323883404E+02   -0.67214E-03   -0.57783E-02    96   0.164E+00    0.774E-02
DAV:   2    -0.936325513382E+02   -0.16300E-03   -0.40920E-03   128   0.353E-01    0.769E-02
DAV:   3    -0.936324995670E+02    0.51771E-04   -0.86292E-04   112   0.246E-01
 302 F= -.93632500E+02 E0= -.93632482E+02  d E =-.769005E-03
       N       E                     dE             d eps       ncg     rms          rms(c)
DAV:   1    -0.936325934325E+02   -0.42094E-04   -0.42547E-02    96   0.140E+00    0.776E-02
DAV:   2    -0.936327080697E+02   -0.11464E-03   -0.34382E-03   136   0.318E-01    0.780E-02
DAV:   3    -0.936326398414E+02    0.68228E-04   -0.99442E-04    96   0.212E-01
 303 F= -.93632640E+02 E0= -.93632623E+02  d E =-.909280E-03
