unknown system                          
           1
    20.738775    0.000000    0.000000
     0.000000   20.180822    0.000000
     0.000000    0.000000   18.777092
   Ti   Al   B 
     2     4    12
Direct configuration=     1
   0.49350394  0.55383014  0.70444999
   0.54156895  0.50398915  0.55599470
   0.66750544  0.60875028  0.50840056
   0.56159131  0.35463119  0.40914582
   0.62179160  0.37683446  0.50801091
   0.73285640  0.36669475  0.60602306
   0.43421450  0.52097581  0.67966832
   0.57422390  0.37727260  0.52999171
   0.57203571  0.42431165  0.53931356
   0.39291769  0.37028099  0.48455831
   0.40889465  0.42045735  0.49987269
   0.48073241  0.44124445  0.56180626
   0.54573626  0.60766380  0.49028708
   0.36478677  0.54322332  0.49213862
   0.63030412  0.57209465  0.38793129
   0.55420306  0.67891239  0.40515744
   0.45926914  0.48194015  0.63387279
   0.45397564  0.63887535  0.53004494
Direct configuration=     2
   0.52527641  0.57234592  0.71702954
   0.54319576  0.53627108  0.55839797
   0.66356868  0.60724106  0.50583795
   0.55703518  0.35351831  0.40577002
   0.79325889  0.35669016  0.43515727
   0.73221663  0.36689787  0.60481438
   0.39050561  0.52184328  0.68862463
   0.43482839  0.22427323  0.56356687
   0.54643963  0.58017076  0.58065999
   0.36939675  0.29350145  0.46091187
   0.43873559  0.50185615  0.52694725
   0.46933182  0.42802294  0.55631268
   0.54327073  0.61234542  0.48883888
   0.36756646  0.54184686  0.49324134
   0.62901376  0.57532750  0.39166488
   0.55499100  0.67248106  0.40978974
   0.47204198  0.46314336  0.61220966
   0.45943823  0.63420605  0.52689311
Direct configuration=     3
   0.53681959  0.57907284  0.72159978
   0.54378679  0.54799935  0.55927109
   0.66213843  0.60669275  0.50490694
   0.55537991  0.35311400  0.40454357
   0.85555425  0.34937159  0.40868900
   0.73198419  0.36697166  0.60437526
   0.37462584  0.52215844  0.69187852
   0.38418495  0.16868741  0.57576498
   0.53714037  0.63679555  0.59568146
   0.36085142  0.26560686  0.45232094
   0.44957703  0.53142895  0.53678364
   0.46518991  0.42321947  0.55431683
   0.54237499  0.61404629  0.48831273
   0.36857634  0.54134678  0.49364197
   0.62854497  0.57650202  0.39302132
   0.55527726  0.67014451  0.41147269
   0.47668245  0.45631434  0.60433928
   0.46142282  0.63250966  0.52574803
Direct configuration=     4
   0.53668532  0.58108718  0.71420330
   0.55020020  0.53617789  0.56679165
   0.65821077  0.60578972  0.50265888
   0.55373086  0.35408141  0.40615708
   0.86919373  0.34780390  0.40357584
   0.73221366  0.36729765  0.60304550
   0.37442994  0.52229792  0.69134347
   0.37202297  0.15775617  0.57627914
   0.53179830  0.65320529  0.60046999
   0.35993528  0.25784014  0.45276405
   0.44424464  0.53648208  0.53978163
   0.45246800  0.38826525  0.49481616
   0.54230479  0.62621130  0.48083011
   0.37293807  0.54118598  0.49595783
   0.62624314  0.58085402  0.39665027
   0.55732657  0.66270845  0.41550121
   0.48910490  0.49873089  0.65743996
   0.46706039  0.62420724  0.52840197
Direct configuration=     5
   0.53668418  0.58110441  0.71414002
   0.55025507  0.53607675  0.56685599
   0.65817716  0.60578199  0.50263964
   0.55371675  0.35408969  0.40617089
   0.86931041  0.34779049  0.40353210
   0.73221562  0.36730044  0.60303413
   0.37442827  0.52229912  0.69133889
   0.37191892  0.15766265  0.57628354
   0.53175260  0.65334568  0.60051096
   0.35992744  0.25777369  0.45276784
   0.44419902  0.53652531  0.53980728
   0.45235916  0.38796621  0.49430711
   0.54230418  0.62631537  0.48076609
   0.37297539  0.54118460  0.49597765
   0.62622345  0.58089125  0.39668132
   0.55734410  0.66264483  0.41553567
   0.48921118  0.49909377  0.65789425
   0.46710862  0.62413621  0.52842468
Direct configuration=     6
   0.53432470  0.58110839  0.70516820
   0.54820300  0.53728270  0.56895241
   0.65548866  0.60547728  0.50252760
   0.55157513  0.35527624  0.40861075
   0.86932909  0.34779997  0.40411912
   0.73224453  0.36775847  0.60188973
   0.37987489  0.52169534  0.68950400
   0.37110018  0.15898635  0.57407445
   0.52857188  0.64694497  0.59731086
   0.36122268  0.25708976  0.45541190
   0.44405909  0.53952445  0.54156738
   0.45304539  0.38642468  0.48979753
   0.53911242  0.62365961  0.49466528
   0.37549053  0.54103643  0.49726417
   0.62165098  0.58709999  0.39806079
   0.56445559  0.66033400  0.40575439
   0.48694507  0.50561466  0.65972628
   0.47341772  0.61886919  0.53226319
Direct configuration=     7
   0.53361188  0.58110959  0.70245776
   0.54758305  0.53764702  0.56958575
   0.65467645  0.60538522  0.50249375
   0.55092814  0.35563470  0.40934784
   0.86933473  0.34780283  0.40429646
   0.73225326  0.36789684  0.60154400
   0.38152034  0.52151294  0.68894968
   0.37085284  0.15938625  0.57340707
   0.52761097  0.64501128  0.59634409
   0.36161398  0.25688314  0.45621068
   0.44401682  0.54043051  0.54209912
   0.45325270  0.38595898  0.48843516
   0.53814817  0.62285729  0.49886430
   0.37625036  0.54099167  0.49765284
   0.62026961  0.58897568  0.39847753
   0.56660401  0.65963589  0.40279942
   0.48626046  0.50758466  0.66027975
   0.47532374  0.61727799  0.53342283
Direct configuration=     8
   0.53262817  0.58338169  0.69666634
   0.54688252  0.53702516  0.57151975
   0.65193259  0.60509229  0.50233928
   0.54874832  0.35683355  0.41177551
   0.86899297  0.34785545  0.40504243
   0.73231736  0.36834090  0.60036778
   0.38764339  0.52094922  0.68700979
   0.37034099  0.16114492  0.57100833
   0.52629299  0.63912963  0.59435966
   0.36303227  0.25639866  0.45901320
   0.44375337  0.54174144  0.54470678
   0.45417844  0.38489811  0.48525386
   0.54253764  0.62480068  0.50147012
   0.37779112  0.54071895  0.49837031
   0.61566691  0.59542118  0.40007617
   0.57186606  0.65413791  0.40010154
   0.48138532  0.51069686  0.65962929
   0.47412108  0.61341588  0.53795792
Direct configuration=     9
   0.53252863  0.58361160  0.69608032
   0.54681164  0.53696224  0.57171544
   0.65165494  0.60506265  0.50232365
   0.54852775  0.35695485  0.41202116
   0.86895839  0.34786078  0.40511791
   0.73232385  0.36838583  0.60024876
   0.38826296  0.52089218  0.68681350
   0.37028920  0.16132287  0.57076560
   0.52615963  0.63853449  0.59415886
   0.36317578  0.25634963  0.45929678
   0.44372672  0.54187409  0.54497064
   0.45427212  0.38479077  0.48493195
   0.54298179  0.62499733  0.50173379
   0.37794702  0.54069135  0.49844291
   0.61520117  0.59607338  0.40023793
   0.57239851  0.65358159  0.39982855
   0.48089202  0.51101177  0.65956347
   0.47399939  0.61302509  0.53841681
Direct configuration=    10
   0.53262310  0.58680785  0.69419401
   0.54741223  0.53436588  0.57285932
   0.64996926  0.60471690  0.50204639
   0.54665319  0.35787632  0.41402615
   0.86847572  0.34792566  0.40584917
   0.73240404  0.36873769  0.59920639
   0.39417573  0.52049642  0.68498914
   0.37002289  0.16319268  0.56847209
   0.52751805  0.63636911  0.59352106
   0.36455784  0.25602420  0.46189184
   0.44257073  0.54007588  0.54773605
   0.45509742  0.38389798  0.48296723
   0.54654940  0.62829977  0.49955190
   0.37849882  0.54041270  0.49856628
   0.61610973  0.59523497  0.40168138
   0.57070904  0.65381620  0.40226749
   0.47469711  0.51119713  0.65767410
   0.47206719  0.61253516  0.53916803
Direct configuration=    11
   0.53275041  0.59111496  0.69165211
   0.54822157  0.53086715  0.57440076
   0.64769772  0.60425099  0.50167279
   0.54412712  0.35911804  0.41672797
   0.86782529  0.34801309  0.40683459
   0.73251212  0.36921185  0.59780174
   0.40214350  0.51996311  0.68253072
   0.36966402  0.16571234  0.56538146
   0.52934859  0.63345114  0.59266161
   0.36642024  0.25558567  0.46538882
   0.44101299  0.53765269  0.55146260
   0.45620956  0.38269489  0.48031966
   0.55135694  0.63274999  0.49661168
   0.37924240  0.54003720  0.49873252
   0.61733407  0.59410516  0.40362651
   0.56843239  0.65413235  0.40555410
   0.46634914  0.51144690  0.65512807
   0.46946346  0.61187496  0.54018032
Direct configuration=    12
   0.53270548  0.58959476  0.69254928
   0.54793592  0.53210203  0.57385671
   0.64849947  0.60441543  0.50180465
   0.54501870  0.35867977  0.41577436
   0.86805486  0.34798223  0.40648678
   0.73247397  0.36904449  0.59829751
   0.39933126  0.52015134  0.68339843
   0.36979068  0.16482302  0.56647230
   0.52870250  0.63448104  0.59296495
   0.36576290  0.25574045  0.46415456
   0.44156279  0.53850796  0.55014731
   0.45581703  0.38311952  0.48125412
   0.54966011  0.63117928  0.49764943
   0.37897995  0.54016974  0.49867385
   0.61690194  0.59450393  0.40293998
   0.56923594  0.65402077  0.40439409
   0.46929556  0.51135874  0.65602670
   0.47038245  0.61210798  0.53982303
Direct configuration=    13
   0.53271724  0.58999296  0.69231428
   0.54801074  0.53177857  0.57399921
   0.64828946  0.60437236  0.50177011
   0.54478516  0.35879457  0.41602414
   0.86799472  0.34799031  0.40657789
   0.73248396  0.36908833  0.59816765
   0.40006789  0.52010204  0.68317114
   0.36975750  0.16505597  0.56618657
   0.52887174  0.63421127  0.59288549
   0.36593508  0.25569991  0.46447786
   0.44141878  0.53828393  0.55049183
   0.45591985  0.38300829  0.48100935
   0.55010458  0.63159071  0.49737761
   0.37904870  0.54013502  0.49868922
   0.61701513  0.59439948  0.40311981
   0.56902546  0.65405000  0.40469794
   0.46852378  0.51138183  0.65579131
   0.47014173  0.61204694  0.53991662
Direct configuration=    14
   0.53088139  0.59111742  0.69062769
   0.54834282  0.52914213  0.57427958
   0.64880569  0.60317893  0.50333146
   0.54295365  0.35961836  0.41802134
   0.86730644  0.34808169  0.40753582
   0.73258440  0.36947112  0.59685893
   0.40107144  0.52069089  0.68275927
   0.36957874  0.16773331  0.56308179
   0.53100534  0.63440960  0.58982983
   0.36780106  0.25529098  0.46786735
   0.44020946  0.53548319  0.55459527
   0.45641409  0.38185960  0.47951827
   0.54991584  0.63439352  0.49474997
   0.37956899  0.54007786  0.49867029
   0.61729567  0.59427351  0.40285719
   0.56667541  0.65285368  0.41055133
   0.46903258  0.51198445  0.65137286
   0.47066852  0.61232223  0.54015979
Direct configuration=    15
   0.52845231  0.59260522  0.68839612
   0.54878221  0.52565380  0.57465053
   0.64948873  0.60159988  0.50539732
   0.54053034  0.36070833  0.42066388
   0.86639575  0.34820259  0.40880328
   0.73271730  0.36997761  0.59512732
   0.40239926  0.52147003  0.68221431
   0.36934222  0.17127577  0.55897379
   0.53382836  0.63467202  0.58578680
   0.37026998  0.25474991  0.47235207
   0.43860937  0.53177746  0.56002464
   0.45706802  0.38033974  0.47754538
   0.54966611  0.63810199  0.49127329
   0.38025740  0.54000224  0.49864524
   0.61766686  0.59410684  0.40250972
   0.56356600  0.65127080  0.41829611
   0.46970577  0.51278178  0.64552670
   0.47136552  0.61268646  0.54048154
Direct configuration=    16
   0.52909310  0.59221274  0.68898481
   0.54866630  0.52657402  0.57455268
   0.64930854  0.60201643  0.50485235
   0.54116961  0.36042080  0.41996678
   0.86663599  0.34817070  0.40846892
   0.73268224  0.36984400  0.59558412
   0.40204898  0.52126449  0.68235807
   0.36940461  0.17034127  0.56005748
   0.53308365  0.63460279  0.58685335
   0.36961868  0.25489265  0.47116900
   0.43903147  0.53275503  0.55859237
   0.45689552  0.38074068  0.47806583
   0.54973199  0.63712370  0.49219044
   0.38007580  0.54002219  0.49865184
   0.61756894  0.59415081  0.40260139
   0.56438626  0.65168837  0.41625304
   0.46952818  0.51257144  0.64706892
   0.47118165  0.61259038  0.54039666
Direct configuration=    17
   0.52666063  0.59247490  0.68669783
   0.54900004  0.52484448  0.57396992
   0.64999103  0.60068347  0.50656604
   0.54020347  0.36092386  0.42127664
   0.86591346  0.34827417  0.40945393
   0.73277240  0.37022024  0.59425636
   0.40218914  0.52210771  0.68229752
   0.36931345  0.17340773  0.55664244
   0.53559265  0.63518381  0.58332486
   0.37162636  0.25435578  0.47478275
   0.43814407  0.53128693  0.56185187
   0.45637332  0.37967511  0.47747038
   0.54765319  0.63844546  0.49505039
   0.38154258  0.54016988  0.49933919
   0.61670810  0.59547956  0.40228905
   0.56431717  0.64985192  0.41734225
   0.47079185  0.51329395  0.64303606
   0.47131858  0.61130353  0.54102057
Direct configuration=    18
   0.52353000  0.59281230  0.68375444
   0.54942958  0.52261853  0.57321990
   0.65086941  0.59896792  0.50877159
   0.53896004  0.36157132  0.42296246
   0.86498355  0.34840734  0.41072166
   0.73288844  0.37070447  0.59254752
   0.40236954  0.52319294  0.68221958
   0.36919612  0.17735432  0.55224723
   0.53882178  0.63593158  0.57878363
   0.37421027  0.25366482  0.47943370
   0.43700196  0.52939745  0.56604690
   0.45570125  0.37830369  0.47670403
   0.54497773  0.64014660  0.49873120
   0.38343036  0.54035997  0.50022382
   0.61560019  0.59718969  0.40188707
   0.56422826  0.64748838  0.41874408
   0.47241822  0.51422382  0.63784569
   0.47149481  0.60964733  0.54182355
Direct configuration=    19
   0.52033267  0.59302690  0.68032934
   0.55040672  0.52121561  0.57120707
   0.65102771  0.59755650  0.50999555
   0.53880301  0.36192151  0.42386909
   0.86404289  0.34855427  0.41199979
   0.73299317  0.37119240  0.59083680
   0.40353196  0.52439573  0.68149436
   0.36922603  0.18170387  0.54765258
   0.54138193  0.63601543  0.57830240
   0.37687718  0.25290055  0.48414112
   0.43517926  0.52887753  0.56709255
   0.45377790  0.37687289  0.47691657
   0.54258961  0.64154997  0.49957207
   0.38606955  0.54085384  0.50175162
   0.61598440  0.59761605  0.40173312
   0.56340610  0.64628620  0.41997801
   0.47319596  0.51446508  0.63677238
   0.47128546  0.60697815  0.54302362
Direct configuration=    20
   0.51548103  0.59335254  0.67513208
   0.55188945  0.51908680  0.56815279
   0.65126791  0.59541480  0.51185279
   0.53856472  0.36245289  0.42524480
   0.86261552  0.34877721  0.41393924
   0.73315207  0.37193280  0.58824095
   0.40529584  0.52622086  0.68039391
   0.36927142  0.18830389  0.54068064
   0.54526670  0.63614267  0.57757219
   0.38092396  0.25174084  0.49128418
   0.43241350  0.52808860  0.56867924
   0.45085940  0.37470178  0.47723908
   0.53896586  0.64367943  0.50084801
   0.39007427  0.54160326  0.50406992
   0.61656740  0.59826302  0.40149950
   0.56215857  0.64446199  0.42185039
   0.47437611  0.51483117  0.63514374
   0.47096779  0.60292792  0.54484459
Direct configuration=    21
   0.51219189  0.59503718  0.67277459
   0.55290399  0.51827261  0.56464210
   0.65044771  0.59421770  0.51175678
   0.53890753  0.36283017  0.42607883
   0.86143621  0.34896740  0.41554390
   0.73324341  0.37257025  0.58609674
   0.40791715  0.52799605  0.67860757
   0.36926805  0.19114454  0.53757097
   0.54648491  0.63424103  0.58246671
   0.38451678  0.25406744  0.49412235
   0.43101659  0.52742069  0.56995457
   0.44780643  0.37223462  0.47826620
   0.53624184  0.64496583  0.49667130
   0.39244289  0.54363058  0.50384834
   0.61839275  0.59775960  0.40196996
   0.56072746  0.64387093  0.42298425
   0.47483304  0.51282794  0.63681865
   0.47133289  0.59992792  0.54649425
Direct configuration=    22
   0.51171644  0.59528069  0.67243381
   0.55305065  0.51815492  0.56413462
   0.65032915  0.59404466  0.51174290
   0.53895709  0.36288471  0.42619940
   0.86126574  0.34899489  0.41577585
   0.73325661  0.37266240  0.58578678
   0.40829606  0.52825265  0.67834935
   0.36926756  0.19155516  0.53712146
   0.54666100  0.63396614  0.58317422
   0.38503613  0.25440375  0.49453261
   0.43081466  0.52732414  0.57013892
   0.44736511  0.37187799  0.47841467
   0.53584808  0.64515178  0.49606755
   0.39278528  0.54392363  0.50381631
   0.61865660  0.59768683  0.40203797
   0.56052059  0.64378549  0.42314815
   0.47489909  0.51253836  0.63706076
   0.47138567  0.59949426  0.54673271
Direct configuration=    23
   0.50919305  0.59674924  0.67225124
   0.55336046  0.51787731  0.56163855
   0.64948189  0.59335641  0.51120588
   0.53911780  0.36320090  0.42689106
   0.86038160  0.34913723  0.41697432
   0.73330633  0.37315398  0.58418794
   0.41036697  0.52979154  0.67689203
   0.36903341  0.19204906  0.53615875
   0.54673314  0.63243819  0.58458756
   0.38811235  0.25826222  0.49508881
   0.43036234  0.52654170  0.57186046
   0.44505202  0.36945395  0.47930846
   0.53354581  0.64538395  0.49624104
   0.39426925  0.54604830  0.50280465
   0.61964226  0.59765349  0.40282297
   0.56067830  0.64302209  0.42171137
   0.47547327  0.51004148  0.63831294
   0.47200127  0.59782144  0.54773001
Direct configuration=    24
   0.50162290  0.60115487  0.67170355
   0.55428988  0.51704450  0.55415035
   0.64694014  0.59129164  0.50959480
   0.53959993  0.36414947  0.42896604
   0.85772918  0.34956424  0.42056971
   0.73345550  0.37462872  0.57939140
   0.41657968  0.53440820  0.67252006
   0.36833097  0.19353073  0.53327065
   0.54694955  0.62785435  0.58882758
   0.39734100  0.26983763  0.49675739
   0.42900537  0.52419438  0.57702509
   0.43811273  0.36218186  0.48198985
   0.52663898  0.64608047  0.49676153
   0.39872119  0.55242231  0.49976966
   0.62259921  0.59755344  0.40517799
   0.56115140  0.64073190  0.41740102
   0.47719584  0.50255082  0.64206946
   0.47384806  0.59280296  0.55072191
Direct configuration=    25
   0.48648259  0.60996613  0.67060817
   0.55614873  0.51537887  0.53917396
   0.64185663  0.58716210  0.50637265
   0.54056421  0.36604661  0.43311600
   0.85242433  0.35041826  0.42776050
   0.73375384  0.37757820  0.56979832
   0.42900510  0.54364151  0.66377614
   0.36692608  0.19649409  0.52749444
   0.54738238  0.61868666  0.59730763
   0.41579830  0.29298844  0.50009455
   0.42629142  0.51949974  0.58735433
   0.42423417  0.34763766  0.48735262
   0.51282533  0.64747350  0.49780250
   0.40762505  0.56517032  0.49369969
   0.62851313  0.59735336  0.40988801
   0.56209761  0.63615150  0.40878032
   0.48064097  0.48756950  0.64958250
   0.47754164  0.58276601  0.55670573
Direct configuration=    26
   0.50055884  0.60177412  0.67162657
   0.55442052  0.51692744  0.55309782
   0.64658287  0.59100142  0.50936835
   0.53966770  0.36428280  0.42925769
   0.85735635  0.34962426  0.42107508
   0.73347647  0.37483601  0.57871720
   0.41745294  0.53505711  0.67190554
   0.36823223  0.19373900  0.53286470
   0.54697997  0.62721005  0.58942356
   0.39863817  0.27146466  0.49699192
   0.42881463  0.52386444  0.57775102
   0.43713735  0.36115969  0.48236674
   0.52566816  0.64617837  0.49683469
   0.39934695  0.55331824  0.49934306
   0.62301484  0.59753938  0.40550901
   0.56121790  0.64040999  0.41679516
   0.47743796  0.50149794  0.64259747
   0.47410764  0.59209757  0.55114246
Direct configuration=    27
   0.49807078  0.60064170  0.67455998
   0.55320183  0.51676964  0.55382671
   0.64637782  0.59129937  0.50936445
   0.53850962  0.36447765  0.43026470
   0.85699814  0.34968839  0.42153427
   0.73348069  0.37503473  0.57807551
   0.41690683  0.53621787  0.67201114
   0.36895888  0.19555072  0.53202230
   0.54705353  0.62714536  0.58441097
   0.39962986  0.27356129  0.49717006
   0.42877180  0.52452338  0.57718957
   0.43690145  0.35766048  0.48242831
   0.52657837  0.64411043  0.49683144
   0.40108924  0.55383550  0.50131297
   0.62266019  0.59791160  0.40524221
   0.56103418  0.64011238  0.41898491
   0.47980354  0.50014958  0.64150130
   0.47408479  0.59329242  0.54993723
Direct configuration=    28
   0.49227973  0.59800596  0.68138757
   0.55036530  0.51640235  0.55552324
   0.64590055  0.59199286  0.50935536
   0.53581416  0.36493117  0.43260854
   0.85616438  0.34983766  0.42260304
   0.73349052  0.37549725  0.57658198
   0.41563574  0.53891955  0.67225693
   0.37065017  0.19976754  0.53006159
   0.54722473  0.62699481  0.57274405
   0.40193803  0.27844124  0.49758468
   0.42867211  0.52605709  0.57588277
   0.43635237  0.34951596  0.48257162
   0.52869690  0.63929723  0.49682388
   0.40514447  0.55503944  0.50589798
   0.62183471  0.59877794  0.40462124
   0.56060656  0.63941970  0.42408162
   0.48530948  0.49701125  0.63894993
   0.47403160  0.59607346  0.54713203
Direct configuration=    29
   0.49413803  0.59885175  0.67919665
   0.55127552  0.51652021  0.55497884
   0.64605370  0.59177032  0.50935828
   0.53667911  0.36478564  0.43185642
   0.85643193  0.34978976  0.42226008
   0.73348736  0.37534883  0.57706124
   0.41604362  0.53805260  0.67217806
   0.37010745  0.19841440  0.53069076
   0.54716979  0.62704312  0.57648787
   0.40119736  0.27687531  0.49745163
   0.42870410  0.52556493  0.57630211
   0.43652857  0.35212947  0.48252564
   0.52801708  0.64084175  0.49682630
   0.40384318  0.55465311  0.50442669
   0.62209960  0.59849994  0.40482050
   0.56074378  0.63964197  0.42244613
   0.48354267  0.49801831  0.63976864
   0.47404867  0.59518105  0.54803219
Direct configuration=    30
   0.49276895  0.59763088  0.67893219
   0.54994388  0.51622883  0.55578586
   0.64551966  0.59200914  0.50950056
   0.53432641  0.36504912  0.43390356
   0.85572927  0.34992818  0.42312242
   0.73349381  0.37574799  0.57585156
   0.41791897  0.53764992  0.67012650
   0.37178084  0.20258035  0.52884094
   0.54596078  0.62559774  0.57587538
   0.40240849  0.27892025  0.49817589
   0.42993167  0.52516520  0.57880099
   0.43658371  0.34667365  0.48238213
   0.52841709  0.63897780  0.49586060
   0.40659186  0.55692364  0.50602354
   0.62147558  0.59922526  0.40425839
   0.56169880  0.63884794  0.42292808
   0.48311723  0.49843373  0.63969354
   0.47244451  0.59639285  0.54660591
Direct configuration=    31
   0.49170438  0.59668155  0.67872655
   0.54890842  0.51600226  0.55641340
   0.64510439  0.59219484  0.50961120
   0.53249697  0.36525399  0.43549538
   0.85518290  0.35003581  0.42379297
   0.73349883  0.37605838  0.57491093
   0.41937721  0.53733679  0.66853124
   0.37308205  0.20581975  0.52740254
   0.54502067  0.62447382  0.57539913
   0.40335025  0.28051038  0.49873907
   0.43088622  0.52485438  0.58074408
   0.43662659  0.34243127  0.48227054
   0.52872814  0.63752842  0.49510968
   0.40872920  0.55868918  0.50726523
   0.62099035  0.59978927  0.40382129
   0.56244140  0.63823050  0.42330283
   0.48278641  0.49875676  0.63963514
   0.47119714  0.59733513  0.54549684
Direct configuration=    32
   0.49161564  0.59651637  0.67762375
   0.54790169  0.51576287  0.55679090
   0.64439252  0.59239701  0.50959158
   0.53022870  0.36542084  0.43751216
   0.85449337  0.35017412  0.42463089
   0.73352010  0.37643739  0.57374232
   0.42027974  0.53630002  0.66730543
   0.37470825  0.20982856  0.52568681
   0.54369402  0.62297217  0.57643009
   0.40276769  0.27891884  0.50016621
   0.43148690  0.52462036  0.58153729
   0.43838612  0.34076918  0.48130667
   0.52873900  0.63621914  0.49445789
   0.41107987  0.56054977  0.50901127
   0.62157412  0.59976311  0.40313584
   0.56281996  0.63815715  0.42283182
   0.48251499  0.49865938  0.64048537
   0.46990884  0.59851620  0.54442175
Direct configuration=    33
   0.49157860  0.59644744  0.67716355
   0.54748157  0.51566297  0.55694843
   0.64409546  0.59248137  0.50958340
   0.52928213  0.36549046  0.43835377
   0.85420562  0.35023185  0.42498056
   0.73352898  0.37659556  0.57325465
   0.42065637  0.53586736  0.66679389
   0.37538687  0.21150146  0.52497082
   0.54314040  0.62234553  0.57686032
   0.40252458  0.27825468  0.50076176
   0.43173757  0.52452270  0.58186830
   0.43912038  0.34007558  0.48090444
   0.52874353  0.63567277  0.49418589
   0.41206081  0.56132621  0.50973990
   0.62181773  0.59975219  0.40284980
   0.56297793  0.63812653  0.42263526
   0.48240172  0.49861875  0.64084017
   0.46937123  0.59900907  0.54397311
Direct configuration=    34
   0.49225723  0.59718820  0.67617734
   0.54711090  0.51549377  0.55672246
   0.64348860  0.59257860  0.50944931
   0.52854738  0.36569298  0.43931346
   0.85379010  0.35031727  0.42547178
   0.73355112  0.37680482  0.57256847
   0.41983461  0.53513940  0.66758280
   0.37545463  0.21162899  0.52486096
   0.54233029  0.62170552  0.57782595
   0.40253654  0.27840164  0.50091813
   0.43157252  0.52451889  0.58048604
   0.44005865  0.34009689  0.48036178
   0.52872374  0.63517284  0.49435956
   0.41214742  0.56142095  0.51032444
   0.62287942  0.59932126  0.40240396
   0.56292718  0.63849799  0.42184057
   0.48300498  0.49767472  0.64181991
   0.46989620  0.60032774  0.54418113
Direct configuration=    35
   0.49293544  0.59792851  0.67519174
   0.54674045  0.51532468  0.55649662
   0.64288211  0.59267576  0.50931530
   0.52781308  0.36589537  0.44027256
   0.85337483  0.35040264  0.42596270
   0.73357325  0.37701396  0.57188270
   0.41901335  0.53441189  0.66837122
   0.37552234  0.21175645  0.52475117
   0.54152067  0.62106590  0.57879098
   0.40254850  0.27854852  0.50107440
   0.43140757  0.52451508  0.57910461
   0.44099635  0.34011818  0.47981945
   0.52870396  0.63467322  0.49453313
   0.41223398  0.56151563  0.51090862
   0.62394047  0.59889059  0.40195839
   0.56287647  0.63886922  0.42104636
   0.48360786  0.49673127  0.64279905
   0.47042085  0.60164560  0.54438903
Direct configuration=    36
   0.49306435  0.59830424  0.67405961
   0.54636356  0.51493929  0.55607375
   0.64210231  0.59272228  0.50921093
   0.52779282  0.36641287  0.44113460
   0.85283507  0.35051959  0.42659264
   0.73359696  0.37726726  0.57101134
   0.41890977  0.53350911  0.66890426
   0.37518213  0.21084168  0.52503305
   0.54122265  0.62083282  0.57952616
   0.40313181  0.27991501  0.50074547
   0.43184638  0.52382671  0.57946532
   0.44112743  0.33978984  0.47961725
   0.52934472  0.63429564  0.49412035
   0.41208110  0.56217120  0.51071468
   0.62451302  0.59888580  0.40157843
   0.56337395  0.63878379  0.42044867
   0.48340158  0.49621554  0.64352858
   0.47022192  0.60274981  0.54490296
Direct configuration=    37
   0.49314936  0.59855202  0.67331300
   0.54611500  0.51468513  0.55579487
   0.64158805  0.59275296  0.50914210
   0.52777946  0.36675415  0.44170310
   0.85247912  0.35059671  0.42700806
   0.73361259  0.37743431  0.57043669
   0.41884147  0.53291375  0.66925579
   0.37495777  0.21023842  0.52521893
   0.54102611  0.62067910  0.58001099
   0.40351648  0.28081618  0.50052855
   0.43213576  0.52337275  0.57970319
   0.44121388  0.33957331  0.47948390
   0.52976729  0.63404664  0.49384813
   0.41198027  0.56260354  0.51058677
   0.62489060  0.59888264  0.40132785
   0.56370202  0.63872745  0.42005451
   0.48326555  0.49587542  0.64400969
   0.47009073  0.60347800  0.54524189
Direct configuration=    38
   0.49283142  0.59863779  0.67241887
   0.54566433  0.51424034  0.55540260
   0.64082611  0.59277294  0.50904622
   0.52796159  0.36734670  0.44251797
   0.85193217  0.35071654  0.42764460
   0.73362864  0.37769043  0.56954843
   0.41898738  0.53214015  0.66967615
   0.37488660  0.20999993  0.52527542
   0.54109450  0.62068890  0.58022036
   0.40334478  0.28069701  0.50069433
   0.43259078  0.52281146  0.58015744
   0.44163683  0.34000040  0.47909304
   0.53048837  0.63363740  0.49349164
   0.41198511  0.56322257  0.51071279
   0.62531727  0.59900149  0.40098817
   0.56426831  0.63851504  0.41965590
   0.48300249  0.49551145  0.64447938
   0.46966485  0.60435195  0.54564472
Direct configuration=    39
   0.49193465  0.59887969  0.66989695
   0.54439318  0.51298578  0.55429619
   0.63867705  0.59282931  0.50877580
   0.52847529  0.36901801  0.44481633
   0.85038950  0.35105451  0.42943996
   0.73367392  0.37841280  0.56704309
   0.41939894  0.52995820  0.67086178
   0.37468587  0.20932728  0.52543475
   0.54128738  0.62071653  0.58081087
   0.40286048  0.28036088  0.50116191
   0.43387418  0.52122835  0.58143866
   0.44282978  0.34120503  0.47799062
   0.53252218  0.63248312  0.49248616
   0.41199875  0.56496855  0.51106823
   0.62652067  0.59933671  0.40003008
   0.56586551  0.63791594  0.41853161
   0.48226052  0.49448487  0.64580416
   0.46846365  0.60681691  0.54678089
Direct configuration=    40
   0.49098789  0.59876353  0.66915034
   0.54358378  0.51237433  0.55385572
   0.63770296  0.59282345  0.50862021
   0.52916621  0.37002758  0.44584507
   0.84962169  0.35122444  0.43032760
   0.73367089  0.37877587  0.56580195
   0.41942651  0.52917714  0.67147592
   0.37474444  0.20940159  0.52538529
   0.54171208  0.62089781  0.58025491
   0.40277816  0.28024428  0.50133291
   0.43414976  0.52096932  0.58147804
   0.44269890  0.34121897  0.47778391
   0.53322815  0.63182187  0.49238039
   0.41221712  0.56540083  0.51206197
   0.62734240  0.59940227  0.39954688
   0.56635843  0.63770576  0.41825228
   0.48242403  0.49383181  0.64610648
   0.46829812  0.60792164  0.54700818
Direct configuration=    41
   0.48814759  0.59841505  0.66691049
   0.54115557  0.51053998  0.55253431
   0.63478066  0.59280585  0.50815342
   0.53123896  0.37305631  0.44893130
   0.84731827  0.35173423  0.43299049
   0.73366180  0.37986509  0.56207852
   0.41950924  0.52683395  0.67331835
   0.37492016  0.20962451  0.52523691
   0.54298616  0.62144164  0.57858702
   0.40253121  0.27989447  0.50184590
   0.43497650  0.52019224  0.58159619
   0.44230626  0.34126079  0.47716378
   0.53534606  0.62983810  0.49206308
   0.41287223  0.56669765  0.51504319
   0.62980758  0.59959896  0.39809727
   0.56783720  0.63707520  0.41741431
   0.48291456  0.49187264  0.64701344
   0.46780153  0.61123582  0.54769006
Direct configuration=    42
   0.48246699  0.59771809  0.66243080
   0.53629914  0.50687128  0.54989149
   0.62893607  0.59277065  0.50721984
   0.53538447  0.37911378  0.45510375
   0.84271142  0.35275380  0.43831629
   0.73364362  0.38204352  0.55463168
   0.41967469  0.52214756  0.67700321
   0.37527160  0.21007037  0.52494015
   0.54553433  0.62252931  0.57525125
   0.40203730  0.27919487  0.50287188
   0.43662996  0.51863807  0.58183247
   0.44152097  0.34134444  0.47592352
   0.53958187  0.62587056  0.49142847
   0.41418244  0.56929130  0.52100563
   0.63473793  0.59999233  0.39519806