       N       E                     dE             d eps       ncg     rms          rms(c)
DAV:   1     0.394818577909E+03    0.39482E+03   -0.18604E+04   144   0.551E+02
DAV:   2     0.276357114012E+02   -0.36718E+03   -0.36048E+03   168   0.177E+02
DAV:   3    -0.786950614317E+02   -0.10633E+03   -0.10361E+03   144   0.793E+01
DAV:   4    -0.921981878691E+02   -0.13503E+02   -0.12504E+02   128   0.294E+01
DAV:   5    -0.935328173645E+02   -0.13346E+01   -0.12698E+01   136   0.756E+00    0.369E+01
DAV:   6    -0.677072504171E+02    0.25826E+02   -0.82752E+02   160   0.900E+01    0.510E+01
DAV:   7    -0.384348712491E+02    0.29272E+02   -0.48218E+02   160   0.124E+02    0.206E+01
DAV:   8    -0.329977563926E+02    0.54371E+01   -0.94342E+01   144   0.294E+01    0.131E+01
DAV:   9    -0.299996208018E+02    0.29981E+01   -0.14907E+01   144   0.131E+01    0.766E+00
DAV:  10    -0.296201303742E+02    0.37949E+00   -0.49525E+00   144   0.724E+00    0.577E+00
DAV:  11    -0.297844801681E+02   -0.16435E+00   -0.76664E+00   152   0.843E+00    0.525E+00
DAV:  12    -0.293278777756E+02    0.45660E+00   -0.26776E+00   152   0.836E+00    0.254E+00
DAV:  13    -0.292846925514E+02    0.43185E-01   -0.13456E+00   144   0.463E+00    0.193E+00
DAV:  14    -0.292569136647E+02    0.27779E-01   -0.42676E-01   128   0.245E+00    0.128E+00
DAV:  15    -0.292509810916E+02    0.59326E-02   -0.11298E-01   128   0.977E-01    0.440E-01
DAV:  16    -0.292543597516E+02   -0.33787E-02   -0.35477E-02   144   0.516E-01    0.290E-01
DAV:  17    -0.292562719791E+02   -0.19122E-02   -0.18957E-02   144   0.317E-01    0.222E-01
DAV:  18    -0.292591004019E+02   -0.28284E-02   -0.40222E-03   128   0.216E-01    0.117E-01
DAV:  19    -0.292663024487E+02   -0.72020E-02   -0.53900E-03   136   0.218E-01    0.233E-01
DAV:  20    -0.292694343776E+02   -0.31319E-02   -0.54845E-03   136   0.214E-01    0.161E-01
DAV:  21    -0.292720660557E+02   -0.26317E-02   -0.20038E-03   112   0.109E-01    0.418E-02
DAV:  22    -0.292751601859E+02   -0.30941E-02   -0.58272E-04   104   0.713E-02    0.362E-02
DAV:  23    -0.292772296932E+02   -0.20695E-02   -0.27691E-04    96   0.474E-02    0.200E-02
DAV:  24    -0.292784694215E+02   -0.12397E-02   -0.11146E-04    80   0.267E-02    0.101E-02
DAV:  25    -0.292796465732E+02   -0.11772E-02   -0.84825E-05    80   0.206E-02    0.777E-03
DAV:  26    -0.292804711061E+02   -0.82453E-03   -0.61420E-05    80   0.166E-02    0.454E-03
DAV:  27    -0.292809312998E+02   -0.46019E-03   -0.29931E-05    72   0.117E-02    0.570E-03
DAV:  28    -0.292811561434E+02   -0.22484E-03   -0.31152E-05    80   0.939E-03    0.453E-03
DAV:  29    -0.292812564577E+02   -0.10031E-03   -0.91028E-06    64   0.714E-03    0.200E-03
DAV:  30    -0.292812873683E+02   -0.30911E-04   -0.42611E-06    48   0.460E-03
   1 F= -.29281287E+02 E0= -.29231854E+02  d E =-.292813E+02
       N       E                     dE             d eps       ncg     rms          rms(c)
DAV:   1    -0.141732183372E+02    0.15108E+02   -0.38235E+03   104   0.285E+02    0.229E+01
DAV:   2    -0.506067302740E+02   -0.36434E+02   -0.71458E+02   160   0.887E+01    0.265E+01
DAV:   3    -0.453261375449E+02    0.52806E+01   -0.20810E+02   168   0.401E+01    0.257E+01
DAV:   4    -0.318271922291E+02    0.13499E+02   -0.56446E+01   136   0.259E+01    0.182E+01
DAV:   5    -0.319892098003E+02   -0.16202E+00   -0.77156E+01   152   0.124E+01    0.131E+01
DAV:   6    -0.305884642625E+02    0.14007E+01   -0.33876E+01   152   0.256E+01    0.146E+01
DAV:   7    -0.295186858252E+02    0.10698E+01   -0.35263E+01   144   0.193E+01    0.100E+01
DAV:   8    -0.292787684699E+02    0.23992E+00   -0.14964E+01   152   0.121E+01    0.909E+00
DAV:   9    -0.282372536201E+02    0.10415E+01   -0.10230E+01   144   0.936E+00    0.552E+00
DAV:  10    -0.276784898682E+02    0.55876E+00   -0.17177E+00   144   0.403E+00    0.464E+00
DAV:  11    -0.270717243423E+02    0.60677E+00   -0.99021E-01   136   0.463E+00    0.286E+00
DAV:  12    -0.268987152188E+02    0.17301E+00   -0.58590E-01   152   0.174E+00    0.215E+00
DAV:  13    -0.270615279871E+02   -0.16281E+00   -0.23518E+00   144   0.164E+00    0.735E+00
DAV:  14    -0.268766143669E+02    0.18491E+00   -0.13182E+00   144   0.818E-01    0.295E+00
DAV:  15    -0.268610446678E+02    0.15570E-01   -0.81758E-02   152   0.369E-01    0.167E+00
DAV:  16    -0.268597153856E+02    0.13293E-02   -0.10813E-01   152   0.566E-01    0.532E-01
DAV:  17    -0.268792234335E+02   -0.19508E-01   -0.41244E-02   144   0.465E-01    0.119E+00
DAV:  18    -0.268659053799E+02    0.13318E-01   -0.21306E-02   144   0.172E-01    0.356E-01
DAV:  19    -0.268671612562E+02   -0.12559E-02   -0.18588E-03   128   0.104E-01    0.196E-01
DAV:  20    -0.268707377071E+02   -0.35765E-02   -0.54147E-03   104   0.789E-02    0.411E-01
DAV:  21    -0.268708723883E+02   -0.13468E-03   -0.28166E-03   120   0.602E-02    0.894E-02
DAV:  22    -0.268721682250E+02   -0.12958E-02   -0.48357E-04    88   0.696E-02    0.111E-01
DAV:  23    -0.268731058573E+02   -0.93763E-03   -0.10794E-04    80   0.312E-02    0.797E-02
DAV:  24    -0.268747744036E+02   -0.16685E-02   -0.62277E-04    88   0.441E-02    0.572E-02
DAV:  25    -0.268753317728E+02   -0.55737E-03   -0.20869E-04    80   0.238E-02    0.305E-02
DAV:  26    -0.268756661102E+02   -0.33434E-03   -0.57022E-05    72   0.173E-02    0.608E-02
DAV:  27    -0.268758388726E+02   -0.17276E-03   -0.13611E-04    80   0.136E-02    0.195E-02
DAV:  28    -0.268759316139E+02   -0.92741E-04   -0.11037E-05    72   0.912E-03
   2 F= -.26875932E+02 E0= -.26768082E+02  d E =0.240536E+01
       N       E                     dE             d eps       ncg     rms          rms(c)
DAV:   1    -0.297566862986E+02   -0.28808E+01   -0.90098E+01    96   0.405E+01    0.309E+00
DAV:   2    -0.331755927425E+02   -0.34189E+01   -0.31538E+01   128   0.755E+00    0.157E+01
DAV:   3    -0.302176351216E+02    0.29580E+01   -0.36032E+00   136   0.334E+00    0.540E+00
DAV:   4    -0.300235981446E+02    0.19404E+00   -0.22953E+00   136   0.413E+00    0.338E+00
DAV:   5    -0.299638580195E+02    0.59740E-01   -0.11218E+00   152   0.256E+00    0.207E+00
DAV:   6    -0.299254802437E+02    0.38378E-01   -0.47523E-01   152   0.123E+00    0.107E+00
DAV:   7    -0.299251725512E+02    0.30769E-03   -0.15640E-01   136   0.901E-01    0.839E-01
DAV:   8    -0.299185958654E+02    0.65767E-02   -0.11133E-01   152   0.100E+00    0.532E-01
DAV:   9    -0.299194134039E+02   -0.81754E-03   -0.62986E-02   136   0.910E-01    0.546E-01
DAV:  10    -0.299156946576E+02    0.37187E-02   -0.20358E-02   136   0.547E-01    0.192E-01
DAV:  11    -0.299161913959E+02   -0.49674E-03   -0.30747E-03   136   0.203E-01    0.109E-01
DAV:  12    -0.299164380790E+02   -0.24668E-03   -0.14426E-03   112   0.138E-01    0.425E-02
DAV:  13    -0.299166652297E+02   -0.22715E-03   -0.19962E-04    72   0.616E-02    0.197E-02
DAV:  14    -0.299168429486E+02   -0.17772E-03   -0.73501E-05    72   0.337E-02    0.119E-02
DAV:  15    -0.299170038046E+02   -0.16086E-03   -0.41057E-05    72   0.241E-02    0.736E-03
DAV:  16    -0.299171476381E+02   -0.14383E-03   -0.28271E-05    72   0.189E-02    0.472E-03
DAV:  17    -0.299173177214E+02   -0.17008E-03   -0.31431E-05    72   0.144E-02    0.435E-03
DAV:  18    -0.299174433682E+02   -0.12565E-03   -0.27024E-05    72   0.131E-02    0.261E-03
DAV:  19    -0.299175133692E+02   -0.70001E-04   -0.20575E-05    56   0.103E-02
   3 F= -.29917513E+02 E0= -.29824092E+02  d E =-.636226E+00
       N       E                     dE             d eps       ncg     rms          rms(c)
DAV:   1     0.476055885594E+02    0.77523E+02   -0.26258E+03   112   0.221E+02    0.751E+01
DAV:   2     0.145910687662E+01   -0.46146E+02   -0.57158E+02   144   0.770E+01    0.259E+02
DAV:   3    -0.428034091965E+02   -0.44263E+02   -0.10520E+02   144   0.312E+01    0.393E+02
DAV:   4    -0.341285377313E+02    0.86749E+01   -0.59607E+01   120   0.285E+01    0.357E+02
DAV:   5    -0.323950117855E+02    0.17335E+01   -0.41789E+01   168   0.155E+01    0.260E+02
DAV:   6    -0.304164577200E+02    0.19786E+01   -0.34523E+01   152   0.133E+01    0.269E+02
DAV:   7    -0.186135645922E+02    0.11803E+02   -0.21448E+02   144   0.267E+01    0.206E+02
DAV:   8    -0.185780516033E+02    0.35513E-01   -0.10658E+01   144   0.777E+00    0.202E+02
DAV:   9    -0.189303310062E+02   -0.35228E+00   -0.59787E+00   136   0.522E+00    0.209E+02
DAV:  10    -0.170468326345E+02    0.18835E+01   -0.16357E+01   152   0.541E+00    0.206E+02
DAV:  11    -0.179577420933E+02   -0.91091E+00   -0.79392E-01   136   0.241E+00    0.207E+02
DAV:  12    -0.569118712738E+01    0.12267E+02   -0.39569E+00   128   0.562E+00    0.200E+02
DAV:  13    -0.493436411905E+02   -0.43652E+02   -0.37644E+02   136   0.264E+01    0.173E+02
DAV:  14    -0.578258404984E+02   -0.84822E+01   -0.91830E+00   136   0.105E+01    0.162E+02
DAV:  15    -0.487223603820E+02    0.91035E+01   -0.50036E+01   136   0.732E+00    0.149E+02
DAV:  16    -0.419217337868E+02    0.68006E+01   -0.48250E+00   128   0.105E+01    0.131E+02
DAV:  17    -0.306219746560E+02    0.11300E+02   -0.67411E+00   136   0.884E+00    0.112E+02
DAV:  18    -0.359632557520E+02   -0.53413E+01   -0.12174E+01   152   0.402E+00    0.110E+02
DAV:  19    -0.260366742555E+02    0.99266E+01   -0.30908E+01   144   0.905E+00    0.111E+02
DAV:  20    -0.185078182141E+02    0.75289E+01   -0.71363E+00   128   0.625E+00    0.103E+02
DAV:  21    -0.132335283936E+02    0.52743E+01   -0.74734E-01   144   0.344E+00    0.954E+01
DAV:  22    -0.891562213231E+01    0.43179E+01   -0.40526E+00   144   0.338E+00    0.890E+01
DAV:  23    -0.576605359282E+01    0.31496E+01   -0.14046E+00   136   0.333E+00    0.835E+01
DAV:  24    -0.169178089032E+01    0.40743E+01   -0.50851E+00   128   0.191E+00    0.883E+01
DAV:  25    -0.171297968765E+01   -0.21199E-01   -0.36046E+00   136   0.128E+00    0.786E+01
DAV:  26     0.952415280861E+01    0.11237E+02   -0.69971E+00   152   0.787E+00    0.546E+01
DAV:  27     0.120920446249E+02    0.25679E+01   -0.46332E+00   136   0.299E+00    0.535E+01
DAV:  28     0.132400126016E+02    0.11480E+01   -0.31616E-01   176   0.162E+00    0.506E+01
DAV:  29     0.159123398831E+02    0.26723E+01   -0.99557E+00   144   0.359E+00    0.512E+01
DAV:  30     0.160891971115E+02    0.17686E+00   -0.11597E-01   120   0.127E+00    0.492E+01
DAV:  31     0.164662074250E+02    0.37701E+00   -0.13827E-01   152   0.132E+00    0.488E+01
DAV:  32     0.195129782501E+02    0.30468E+01   -0.14729E+00   144   0.372E+00    0.480E+01
DAV:  33     0.211468733801E+02    0.16339E+01   -0.81987E-01   144   0.288E+00    0.435E+01
DAV:  34     0.217706533335E+02    0.62378E+00   -0.18782E-01   160   0.160E+00    0.415E+01
DAV:  35     0.221156538816E+02    0.34500E+00   -0.26158E-01   152   0.194E+00    0.363E+01
DAV:  36     0.234897490418E+02    0.13741E+01   -0.67585E-01   144   0.244E+00    0.343E+01
DAV:  37     0.236016194405E+02    0.11187E+00   -0.84583E-02   160   0.924E-01    0.334E+01
DAV:  38     0.235002762232E+02   -0.10134E+00   -0.46787E-02   160   0.680E-01    0.323E+01
DAV:  39     0.243464636723E+02    0.84619E+00   -0.69913E-01   152   0.230E+00    0.200E+01
DAV:  40     0.244543645571E+02    0.10790E+00   -0.10972E-01   144   0.103E+00    0.191E+01
DAV:  41     0.245333822815E+02    0.79018E-01   -0.85498E-01   136   0.582E-01    0.151E+01
DAV:  42     0.246392111206E+02    0.10583E+00   -0.85054E-02   144   0.304E-01    0.158E+01
DAV:  43     0.246354855023E+02   -0.37256E-02   -0.65154E-04   112   0.779E-02    0.158E+01
DAV:  44     0.248614616101E+02    0.22598E+00   -0.30865E-02   152   0.527E-01    0.159E+01
DAV:  45     0.250148601191E+02    0.15340E+00   -0.60269E-02   160   0.339E-01    0.181E+01
DAV:  46     0.252047968318E+02    0.18994E+00   -0.91192E-01   144   0.908E-01    0.147E+01
DAV:  47     0.231005012062E+02   -0.21043E+01   -0.11343E+01   144   0.527E+00    0.209E+01
DAV:  48     0.247500739997E+02    0.16496E+01   -0.11468E+00   144   0.241E+00    0.194E+01
DAV:  49     0.250383077304E+02    0.28823E+00   -0.14558E-01   160   0.623E-01    0.177E+01
DAV:  50     0.250271088508E+02   -0.11199E-01   -0.36324E-03   152   0.167E-01    0.177E+01
DAV:  51     0.252339987467E+02    0.20689E+00   -0.11588E-01   144   0.272E-01    0.159E+01
DAV:  52     0.240828159009E+02   -0.11512E+01   -0.94180E-01   144   0.673E-01    0.202E+01
DAV:  53     0.246304433196E+02    0.54763E+00   -0.62721E-01   160   0.169E+00    0.183E+01
DAV:  54     0.253508703868E+02    0.72043E+00   -0.26515E-01   120   0.755E-01    0.148E+01
DAV:  55     0.255860296869E+02    0.23516E+00   -0.48658E-01   144   0.412E-01    0.109E+01
DAV:  56     0.256003038769E+02    0.14274E-01   -0.37124E-03   128   0.217E-01    0.105E+01
DAV:  57     0.257557355113E+02    0.15543E+00   -0.22658E+00   136   0.108E+00    0.780E+00
DAV:  58     0.258778725478E+02    0.12214E+00   -0.47550E-02   152   0.630E-01    0.735E+00
DAV:  59     0.258686248561E+02   -0.92477E-02   -0.16034E-02   152   0.468E-01    0.744E+00
DAV:  60     0.258634192043E+02   -0.52057E-02   -0.89124E-03   160   0.337E-01
   4 F= 0.25863419E+02 E0= 0.25986853E+02  d E =0.557809E+02
       N       E                     dE             d eps       ncg     rms          rms(c)
DAV:   1     0.635233668341E+02    0.37655E+02   -0.40221E+03   112   0.372E+02    0.225E+02
DAV:   2    -0.520663864091E+02   -0.11559E+03   -0.20515E+03   168   0.135E+02    0.137E+02
DAV:   3    -0.202723366753E+03   -0.15066E+03   -0.28248E+03   176   0.993E+01    0.833E+01
DAV:   4    -0.103358015560E+03    0.99365E+02   -0.14071E+03   160   0.178E+02    0.361E+01
DAV:   5    -0.445679693865E+02    0.58790E+02   -0.20447E+02   152   0.386E+01    0.241E+01
DAV:   6    -0.476144491868E+02   -0.30465E+01   -0.35456E+02   168   0.235E+01    0.211E+01
DAV:   7    -0.490558969268E+02   -0.14414E+01   -0.11990E+02   152   0.244E+01    0.204E+01
DAV:   8    -0.415448310136E+02    0.75111E+01   -0.50376E+01   152   0.169E+01    0.138E+01
DAV:   9    -0.379843306669E+02    0.35605E+01   -0.29482E+01   136   0.111E+01    0.118E+01
DAV:  10    -0.367369833371E+02    0.12473E+01   -0.11673E+01   152   0.487E+00    0.119E+01
DAV:  11    -0.378712676616E+02   -0.11343E+01   -0.28198E+01   136   0.745E+00    0.128E+01
DAV:  12    -0.365816355295E+02    0.12896E+01   -0.80694E+00   144   0.340E+00    0.133E+01
DAV:  13    -0.351592724712E+02    0.14224E+01   -0.28904E+00   144   0.284E+00    0.125E+01
DAV:  14    -0.344269988514E+02    0.73227E+00   -0.12574E+01   136   0.327E+00    0.938E+00
DAV:  15    -0.337148646563E+02    0.71213E+00   -0.79981E+00   152   0.195E+00    0.725E+00
DAV:  16    -0.351981256587E+02   -0.14833E+01   -0.25137E+01   144   0.210E+00    0.119E+01
DAV:  17    -0.368687381720E+02   -0.16706E+01   -0.24076E+01   152   0.344E+00    0.136E+01
DAV:  18    -0.374280820931E+02   -0.55934E+00   -0.96483E+00   144   0.174E+00    0.160E+01
DAV:  19    -0.378522738981E+02   -0.42419E+00   -0.68439E+00   160   0.197E+00    0.174E+01
DAV:  20    -0.377769423690E+02    0.75332E-01   -0.20550E+00   144   0.952E-01    0.162E+01
DAV:  21    -0.379318512857E+02   -0.15491E+00   -0.10860E-01   120   0.407E-01    0.162E+01
DAV:  22    -0.390060287706E+02   -0.10742E+01   -0.15327E-01   144   0.509E-01    0.167E+01
DAV:  23    -0.389986195739E+02    0.74092E-02   -0.30746E-02   136   0.233E-01    0.167E+01
DAV:  24    -0.379926294560E+02    0.10060E+01   -0.58358E-01   136   0.897E-01    0.175E+01
DAV:  25    -0.372366453824E+02    0.75598E+00   -0.18256E-01   144   0.863E-01    0.171E+01
DAV:  26    -0.362026172534E+02    0.10340E+01   -0.33512E-01   144   0.629E-01    0.183E+01
DAV:  27    -0.359480951682E+02    0.25452E+00   -0.21918E+00   144   0.577E-01    0.174E+01
DAV:  28    -0.346851723018E+02    0.12629E+01   -0.38370E+00   136   0.146E+00    0.814E+00
DAV:  29    -0.353205829903E+02   -0.63541E+00   -0.64203E+00   144   0.195E+00    0.116E+01
DAV:  30    -0.357162966550E+02   -0.39571E+00   -0.17500E+01   152   0.188E+00    0.789E+00
DAV:  31    -0.372689223880E+02   -0.15526E+01   -0.64421E-01   152   0.156E+00    0.917E+00
DAV:  32    -0.378809701251E+02   -0.61205E+00   -0.70804E-01   144   0.120E+00    0.993E+00
DAV:  33    -0.377908403369E+02    0.90130E-01   -0.11445E-01   144   0.624E-01    0.963E+00
DAV:  34    -0.376756338387E+02    0.11521E+00   -0.37717E-01   136   0.985E-01    0.997E+00
DAV:  35    -0.376947134847E+02   -0.19080E-01   -0.11310E-01   152   0.513E-01    0.101E+01
DAV:  36    -0.375853199052E+02    0.10939E+00   -0.72593E-02   144   0.442E-01    0.976E+00
DAV:  37    -0.373558965441E+02    0.22942E+00   -0.16838E-02   144   0.309E-01    0.984E+00
DAV:  38    -0.356605865186E+02    0.16953E+01   -0.46236E-01   136   0.119E+00    0.993E+00
DAV:  39    -0.353898308070E+02    0.27076E+00   -0.38776E-02   144   0.478E-01    0.100E+01
DAV:  40    -0.353633111342E+02    0.26520E-01   -0.32535E-03   128   0.147E-01    0.101E+01
DAV:  41    -0.354486371111E+02   -0.85326E-01   -0.81752E-02   136   0.122E-01    0.104E+01
DAV:  42    -0.357190245972E+02   -0.27039E+00   -0.33174E-01   128   0.867E-01    0.933E+00
DAV:  43    -0.358223721377E+02   -0.10335E+00   -0.13941E-02   144   0.322E-01    0.913E+00
DAV:  44    -0.361094938028E+02   -0.28712E+00   -0.49822E-02   144   0.468E-01    0.874E+00
DAV:  45    -0.365065129934E+02   -0.39702E+00   -0.66128E-01   144   0.117E+00    0.788E+00
DAV:  46    -0.366676303618E+02   -0.16112E+00   -0.97220E-02   152   0.531E-01    0.774E+00
DAV:  47    -0.367068011904E+02   -0.39171E-01   -0.68921E-02   144   0.225E-01    0.756E+00
DAV:  48    -0.368112477660E+02   -0.10445E+00   -0.52565E-02   128   0.253E-01    0.750E+00
DAV:  49    -0.374663562316E+02   -0.65511E+00   -0.18673E-01   136   0.837E-01    0.739E+00
DAV:  50    -0.376049720472E+02   -0.13862E+00   -0.39786E-02   136   0.361E-01    0.733E+00
DAV:  51    -0.375490995790E+02    0.55872E-01   -0.73871E-02   144   0.265E-01    0.709E+00
DAV:  52    -0.368436903731E+02    0.70541E+00   -0.58299E-01   144   0.115E+00    0.757E+00
DAV:  53    -0.368159026547E+02    0.27788E-01   -0.21119E-02   136   0.383E-01    0.756E+00
DAV:  54    -0.367526402309E+02    0.63262E-01   -0.12604E-02   144   0.280E-01    0.744E+00
DAV:  55    -0.367905107473E+02   -0.37871E-01   -0.20024E-03   136   0.112E-01    0.752E+00
DAV:  56    -0.363984650815E+02    0.39205E+00   -0.36349E-02   144   0.384E-01    0.755E+00
DAV:  57    -0.387525182259E+02   -0.23541E+01   -0.89257E+00   128   0.423E+00    0.859E+00
DAV:  58    -0.368016897247E+02    0.19508E+01   -0.55362E-01   136   0.170E+00    0.707E+00
DAV:  59    -0.358841424077E+02    0.91755E+00   -0.11682E-01   144   0.821E-01    0.642E+00
DAV:  60    -0.353341485003E+02    0.54999E+00   -0.26639E-01   136   0.704E-01
   5 F= -.35334149E+02 E0= -.35177734E+02  d E =-.541664E+01
       N       E                     dE             d eps       ncg     rms          rms(c)
DAV:   1    -0.352388672772E+02    0.64528E+00   -0.49781E-01    96   0.232E+00    0.569E+00
DAV:   2    -0.406573615567E+02   -0.54185E+01   -0.15902E+01   136   0.422E+00    0.190E+01
DAV:   3    -0.337917843805E+02    0.68656E+01   -0.16447E+01   136   0.544E+00    0.900E+00
DAV:   4    -0.349436589056E+02   -0.11519E+01   -0.95274E+00   160   0.634E+00    0.108E+01
DAV:   5    -0.344653137728E+02    0.47835E+00   -0.57124E+00   144   0.444E+00    0.953E+00
DAV:   6    -0.341839462362E+02    0.28137E+00   -0.45558E+00   144   0.160E+00    0.878E+00
DAV:   7    -0.334259009908E+02    0.75805E+00   -0.26063E+00   136   0.178E+00    0.292E+00
DAV:   8    -0.339117519875E+02   -0.48585E+00   -0.34880E+00   152   0.120E+00    0.963E+00
DAV:   9    -0.336056560791E+02    0.30610E+00   -0.98258E-01   152   0.159E+00    0.695E+00
DAV:  10    -0.335231302801E+02    0.82526E-01   -0.22143E+00   152   0.786E-01    0.313E+00
DAV:  11    -0.337057459394E+02   -0.18262E+00   -0.83690E-01   144   0.117E+00    0.636E+00
DAV:  12    -0.335912043790E+02    0.11454E+00   -0.13010E+00   152   0.844E-01    0.371E+00
DAV:  13    -0.336119472961E+02   -0.20743E-01   -0.73387E-01   144   0.115E+00    0.459E+00
DAV:  14    -0.335978995224E+02    0.14048E-01   -0.22538E-01   152   0.111E+00    0.323E+00
DAV:  15    -0.336170508480E+02   -0.19151E-01   -0.80473E-02   144   0.448E-01    0.301E+00
DAV:  16    -0.335956082436E+02    0.21443E-01   -0.37375E-02   152   0.304E-01    0.302E+00
DAV:  17    -0.335701593199E+02    0.25449E-01   -0.20133E-02   160   0.261E-01    0.292E+00
DAV:  18    -0.334766273521E+02    0.93532E-01   -0.13473E-01   152   0.178E-01    0.144E+00
DAV:  19    -0.334861462267E+02   -0.95189E-02   -0.78902E-02   120   0.161E-01    0.128E+00
DAV:  20    -0.334918238726E+02   -0.56776E-02   -0.49640E-02    96   0.783E-02    0.143E+00
DAV:  21    -0.334948301799E+02   -0.30063E-02   -0.38523E-02    88   0.114E-01    0.153E+00
DAV:  22    -0.334995408751E+02   -0.47107E-02   -0.38384E-02   104   0.680E-02    0.170E+00
DAV:  23    -0.334992046947E+02    0.33618E-03   -0.31084E-02    96   0.967E-02    0.171E+00
DAV:  24    -0.335009590462E+02   -0.17544E-02   -0.24194E-02    96   0.737E-02    0.181E+00
DAV:  25    -0.335035983823E+02   -0.26393E-02   -0.34802E-02   112   0.872E-02    0.194E+00
DAV:  26    -0.335047734091E+02   -0.11750E-02   -0.24747E-02   104   0.986E-02    0.191E+00
DAV:  27    -0.335086218974E+02   -0.38485E-02   -0.53921E-02   128   0.142E-01    0.208E+00
DAV:  28    -0.335115346410E+02   -0.29127E-02   -0.27364E-02    96   0.994E-02    0.216E+00
DAV:  29    -0.335178653659E+02   -0.63307E-02   -0.33624E-02   104   0.770E-02    0.242E+00
DAV:  30    -0.335165987909E+02    0.12666E-02   -0.36531E-02   104   0.882E-02    0.241E+00
DAV:  31    -0.335200162562E+02   -0.34175E-02   -0.37974E-02   128   0.103E-01    0.269E+00
DAV:  32    -0.335227348482E+02   -0.27186E-02   -0.41808E-02   104   0.111E-01    0.295E+00
DAV:  33    -0.335316318579E+02   -0.88970E-02   -0.61759E-02   128   0.129E-01    0.351E+00
DAV:  34    -0.335324646905E+02   -0.83283E-03   -0.29420E-02   128   0.135E-01    0.364E+00
DAV:  35    -0.335351242918E+02   -0.26596E-02   -0.21349E-02   136   0.120E-01    0.384E+00
DAV:  36    -0.335374679397E+02   -0.23436E-02   -0.15922E-02   112   0.967E-02    0.395E+00
DAV:  37    -0.335297607896E+02    0.77072E-02   -0.19919E-02   128   0.747E-02    0.371E+00
DAV:  38    -0.335332297513E+02   -0.34690E-02   -0.86042E-03   104   0.691E-02    0.388E+00
DAV:  39    -0.335317472126E+02    0.14825E-02   -0.47745E-03   104   0.588E-02    0.390E+00
DAV:  40    -0.335307408577E+02    0.10064E-02   -0.35245E-03   104   0.491E-02    0.393E+00
DAV:  41    -0.335311824114E+02   -0.44155E-03   -0.27640E-03    96   0.352E-02    0.394E+00
DAV:  42    -0.335307972045E+02    0.38521E-03   -0.24495E-03    96   0.277E-02    0.393E+00
DAV:  43    -0.335314937244E+02   -0.69652E-03   -0.23109E-03    96   0.253E-02    0.396E+00
DAV:  44    -0.335330436033E+02   -0.15499E-02   -0.19350E-03    96   0.263E-02    0.401E+00
DAV:  45    -0.335328942342E+02    0.14937E-03   -0.13974E-03    96   0.285E-02    0.397E+00
DAV:  46    -0.335364745883E+02   -0.35804E-02   -0.17539E-03   120   0.516E-02    0.398E+00
DAV:  47    -0.335346704257E+02    0.18042E-02   -0.23115E-03   120   0.728E-02    0.377E+00
DAV:  48    -0.335353644152E+02   -0.69399E-03   -0.85164E-04    96   0.302E-02    0.378E+00
DAV:  49    -0.335360021822E+02   -0.63777E-03   -0.69593E-04    96   0.222E-02    0.378E+00
DAV:  50    -0.335360918230E+02   -0.89641E-04   -0.54513E-04    96   0.218E-02
   6 F= -.33536092E+02 E0= -.33255576E+02  d E =-.361858E+01
       N       E                     dE             d eps       ncg     rms          rms(c)
DAV:   1    -0.609547877247E+01    0.27441E+02   -0.26183E+03   128   0.209E+02    0.126E+01
DAV:   2    -0.404113327281E+02   -0.34316E+02   -0.45827E+02   136   0.641E+01    0.185E+01
DAV:   3    -0.480911417763E+02   -0.76798E+01   -0.13528E+02   136   0.239E+01    0.235E+01
DAV:   4    -0.403780253974E+02    0.77131E+01   -0.55882E+01   136   0.121E+01    0.163E+01
DAV:   5    -0.364070641160E+02    0.39710E+01   -0.62329E+00   136   0.539E+00    0.138E+01
DAV:   6    -0.369693300193E+02   -0.56227E+00   -0.21706E+01   160   0.241E+00    0.152E+01
DAV:   7    -0.355039573988E+02    0.14654E+01   -0.11046E+01   152   0.318E+00    0.688E+00
DAV:   8    -0.352319196196E+02    0.27204E+00   -0.67534E+00   152   0.476E+00    0.608E+00
DAV:   9    -0.350784519377E+02    0.15347E+00   -0.35360E+00   152   0.324E+00    0.630E+00
DAV:  10    -0.350755026727E+02    0.29493E-02   -0.18196E+00   152   0.291E+00    0.424E+00
DAV:  11    -0.353260569894E+02   -0.25055E+00   -0.40196E+00   144   0.303E+00    0.838E+00
DAV:  12    -0.351830185054E+02    0.14304E+00   -0.44314E+00   160   0.189E+00    0.466E+00
DAV:  13    -0.350511713456E+02    0.13185E+00   -0.22686E+00   160   0.293E+00    0.290E+00
DAV:  14    -0.350481913949E+02    0.29800E-02   -0.61412E-01   136   0.201E+00    0.177E+00
DAV:  15    -0.350421123602E+02    0.60790E-02   -0.30567E-01   160   0.157E+00    0.121E+00
DAV:  16    -0.350599932619E+02   -0.17881E-01   -0.99885E-02   160   0.808E-01    0.122E+00
DAV:  17    -0.350770584644E+02   -0.17065E-01   -0.62987E-02   136   0.693E-01    0.700E-01
DAV:  18    -0.350867212258E+02   -0.96628E-02   -0.31767E-02   160   0.362E-01    0.481E-01
DAV:  19    -0.350942586549E+02   -0.75374E-02   -0.19649E-02   144   0.180E-01    0.488E-01
DAV:  20    -0.351005008018E+02   -0.62421E-02   -0.27190E-02   144   0.129E-01    0.725E-01
DAV:  21    -0.351003821491E+02    0.11865E-03   -0.98975E-03   128   0.975E-02    0.220E-01
DAV:  22    -0.351026615436E+02   -0.22794E-02   -0.91102E-03   120   0.818E-02    0.166E-01
DAV:  23    -0.351035413402E+02   -0.87980E-03   -0.54412E-03    96   0.578E-02    0.135E-01
DAV:  24    -0.351040649506E+02   -0.52361E-03   -0.42932E-03    96   0.334E-02    0.216E-01
DAV:  25    -0.351084040641E+02   -0.43391E-02   -0.53971E-03   144   0.106E-01    0.180E-01
DAV:  26    -0.351103129187E+02   -0.19089E-02   -0.37420E-03   128   0.680E-02    0.193E-01
DAV:  27    -0.351109351874E+02   -0.62227E-03   -0.22786E-03    96   0.417E-02    0.762E-02
DAV:  28    -0.351122415599E+02   -0.13064E-02   -0.16661E-03   104   0.408E-02    0.662E-02
DAV:  29    -0.351128791119E+02   -0.63755E-03   -0.11276E-03    96   0.322E-02    0.565E-02
DAV:  30    -0.351136506359E+02   -0.77152E-03   -0.10079E-03    88   0.358E-02    0.707E-02
DAV:  31    -0.351139689960E+02   -0.31836E-03   -0.78370E-04    96   0.268E-02    0.560E-02
DAV:  32    -0.351141489999E+02   -0.18000E-03   -0.58637E-04    80   0.203E-02    0.392E-02
DAV:  33    -0.351143381576E+02   -0.18916E-03   -0.45380E-04    72   0.190E-02    0.205E-02
DAV:  34    -0.351145006189E+02   -0.16246E-03   -0.41441E-04    96   0.184E-02    0.211E-02
DAV:  35    -0.351145526122E+02   -0.51993E-04   -0.29177E-04    72   0.131E-02
   7 F= -.35114553E+02 E0= -.34884845E+02  d E =-.519704E+01
       N       E                     dE             d eps       ncg     rms          rms(c)
DAV:   1    -0.181578450278E+02    0.16957E+02   -0.13765E+03    96   0.147E+02    0.956E+00
DAV:   2    -0.505889999875E+02   -0.32431E+02   -0.32455E+02   136   0.505E+01    0.211E+01
DAV:   3    -0.418522086593E+02    0.87368E+01   -0.95909E+01   120   0.215E+01    0.144E+01
DAV:   4    -0.413837625088E+02    0.46845E+00   -0.38517E+01   136   0.107E+01    0.823E+00
DAV:   5    -0.401267554599E+02    0.12570E+01   -0.70970E+00   160   0.444E+00    0.549E+00
DAV:   6    -0.399052583764E+02    0.22150E+00   -0.24745E+00   152   0.381E+00    0.413E+00
DAV:   7    -0.399332038168E+02   -0.27945E-01   -0.20586E+00   160   0.233E+00    0.399E+00
DAV:   8    -0.400804846116E+02   -0.14728E+00   -0.37436E+00   160   0.284E+00    0.812E+00
DAV:   9    -0.400221482188E+02    0.58336E-01   -0.73288E+00   136   0.172E+00    0.432E+00
DAV:  10    -0.399208827607E+02    0.10127E+00   -0.20095E+00   152   0.457E+00    0.435E+00
DAV:  11    -0.398758220482E+02    0.45061E-01   -0.12335E+00   144   0.245E+00    0.294E+00
DAV:  12    -0.398589988916E+02    0.16823E-01   -0.34454E-01   152   0.994E-01    0.259E+00
DAV:  13    -0.398326592332E+02    0.26340E-01   -0.73982E-02   160   0.636E-01    0.193E+00
DAV:  14    -0.398366690016E+02   -0.40098E-02   -0.62418E-03   144   0.206E-01    0.200E+00
DAV:  15    -0.398495210243E+02   -0.12852E-01   -0.17628E-01   152   0.475E-01    0.227E+00
DAV:  16    -0.398444927176E+02    0.50283E-02   -0.35438E-03   144   0.184E-01    0.200E+00
DAV:  17    -0.398495222579E+02   -0.50295E-02   -0.98375E-03   144   0.255E-01    0.204E+00
DAV:  18    -0.398469198753E+02    0.26024E-02   -0.10795E-02   152   0.263E-01    0.153E+00
DAV:  19    -0.398449616620E+02    0.19582E-02   -0.19162E-03   128   0.113E-01    0.101E+00
DAV:  20    -0.398472445537E+02   -0.22829E-02   -0.11163E-03   128   0.954E-02    0.105E+00
DAV:  21    -0.398463069394E+02    0.93761E-03   -0.95488E-04   112   0.788E-02    0.612E-01
DAV:  22    -0.398474200232E+02   -0.11131E-02   -0.12039E-03   136   0.843E-02    0.155E-01
DAV:  23    -0.398490873052E+02   -0.16673E-02   -0.62287E-04   120   0.711E-02    0.857E-02
DAV:  24    -0.398499902063E+02   -0.90290E-03   -0.26752E-04    88   0.479E-02    0.187E-01
DAV:  25    -0.398506237004E+02   -0.63349E-03   -0.27008E-04    88   0.406E-02    0.172E-01
DAV:  26    -0.398509588021E+02   -0.33510E-03   -0.69616E-05    80   0.283E-02    0.189E-01
DAV:  27    -0.398510947538E+02   -0.13595E-03   -0.77139E-05    80   0.236E-02    0.865E-02
DAV:  28    -0.398512422669E+02   -0.14751E-03   -0.29917E-05    72   0.175E-02    0.673E-02
DAV:  29    -0.398513416257E+02   -0.99359E-04   -0.38368E-05    72   0.162E-02
   8 F= -.39851342E+02 E0= -.39665769E+02  d E =-.993383E+01
       N       E                     dE             d eps       ncg     rms          rms(c)
DAV:   1    -0.333809428068E+02    0.64703E+01   -0.65678E+02   104   0.105E+02    0.865E+00
DAV:   2    -0.494024987862E+02   -0.16022E+02   -0.14163E+02   120   0.335E+01    0.211E+01
DAV:   3    -0.413398818462E+02    0.80626E+01   -0.33671E+01   152   0.184E+01    0.797E+00
DAV:   4    -0.404780236690E+02    0.86186E+00   -0.13286E+01   152   0.102E+01    0.648E+00
DAV:   5    -0.399554786879E+02    0.52254E+00   -0.58895E+00   144   0.476E+00    0.592E+00
DAV:   6    -0.397569732883E+02    0.19851E+00   -0.42306E+00   168   0.263E+00    0.448E+00
DAV:   7    -0.400604094790E+02   -0.30344E+00   -0.11525E+00   144   0.334E+00    0.124E+01
DAV:   8    -0.395173168235E+02    0.54309E+00   -0.39188E+00   160   0.203E+00    0.270E+00
DAV:   9    -0.396023664438E+02   -0.85050E-01   -0.14872E+00   144   0.238E+00    0.576E+00
DAV:  10    -0.395360108766E+02    0.66356E-01   -0.41092E-01   152   0.184E+00    0.441E+00
DAV:  11    -0.395189704980E+02    0.17040E-01   -0.73573E-01   152   0.107E+00    0.211E+00
DAV:  12    -0.395046936065E+02    0.14277E-01   -0.15007E-01   152   0.704E-01    0.164E+00
DAV:  13    -0.394901506651E+02    0.14543E-01   -0.34820E-02   152   0.488E-01    0.480E-01
DAV:  14    -0.394960329750E+02   -0.58823E-02   -0.14534E-02   168   0.244E-01    0.706E-01
DAV:  15    -0.394967026720E+02   -0.66970E-03   -0.15205E-02   144   0.253E-01    0.349E-01
DAV:  16    -0.394976415803E+02   -0.93891E-03   -0.31454E-03   144   0.165E-01    0.115E-01
DAV:  17    -0.394987445742E+02   -0.11030E-02   -0.88836E-04   120   0.943E-02    0.775E-02
DAV:  18    -0.395009549065E+02   -0.22103E-02   -0.59207E-04    96   0.680E-02    0.166E-01
DAV:  19    -0.395021072130E+02   -0.11523E-02   -0.34619E-04    88   0.465E-02    0.127E-01
DAV:  20    -0.395026981344E+02   -0.59092E-03   -0.10477E-04    80   0.344E-02    0.230E-02
DAV:  21    -0.395037727587E+02   -0.10746E-02   -0.19148E-04    88   0.298E-02    0.666E-02
DAV:  22    -0.395044098108E+02   -0.63705E-03   -0.12084E-04    88   0.239E-02    0.167E-02
DAV:  23    -0.395047180807E+02   -0.30827E-03   -0.32570E-05    72   0.137E-02    0.170E-02
DAV:  24    -0.395049149494E+02   -0.19687E-03   -0.28172E-05    72   0.105E-02    0.863E-03
DAV:  25    -0.395050319858E+02   -0.11704E-03   -0.15172E-05    72   0.743E-03    0.316E-03
DAV:  26    -0.395051040423E+02   -0.72057E-04   -0.10111E-05    72   0.619E-03
   9 F= -.39505104E+02 E0= -.39338956E+02  d E =-.958759E+01
       N       E                     dE             d eps       ncg     rms          rms(c)
DAV:   1    -0.374916819100E+02    0.20134E+01   -0.45869E+02    96   0.906E+01    0.935E+00
DAV:   2    -0.614502770814E+02   -0.23959E+02   -0.14900E+02   136   0.353E+01    0.253E+01
DAV:   3    -0.418027720592E+02    0.19648E+02   -0.37093E+01   144   0.143E+01    0.107E+01
DAV:   4    -0.419860825514E+02   -0.18331E+00   -0.26166E+01   152   0.129E+01    0.149E+01
DAV:   5    -0.409676098060E+02    0.10185E+01   -0.11523E+01   160   0.385E+00    0.641E+00
DAV:   6    -0.409034570517E+02    0.64153E-01   -0.56634E+00   144   0.560E+00    0.981E+00
DAV:   7    -0.406337538646E+02    0.26970E+00   -0.32631E+00   144   0.334E+00    0.339E+00
DAV:   8    -0.405698255494E+02    0.63928E-01   -0.49178E-01   160   0.168E+00    0.243E+00
DAV:   9    -0.408087535165E+02   -0.23893E+00   -0.18024E+00   168   0.150E+00    0.866E+00
DAV:  10    -0.405387859830E+02    0.26997E+00   -0.23394E+00   168   0.174E+00    0.740E-01
DAV:  11    -0.405563090218E+02   -0.17523E-01   -0.84712E-02   152   0.710E-01    0.114E+00
DAV:  12    -0.405542216273E+02    0.20874E-02   -0.31962E-02   152   0.360E-01    0.320E-01
DAV:  13    -0.405558618222E+02   -0.16402E-02   -0.10375E-02   152   0.254E-01    0.340E-01
DAV:  14    -0.405577084378E+02   -0.18466E-02   -0.67642E-03   152   0.270E-01    0.266E-01
DAV:  15    -0.405583020731E+02   -0.59364E-03   -0.24558E-03   136   0.143E-01    0.105E-01
DAV:  16    -0.405592604554E+02   -0.95838E-03   -0.75252E-04   120   0.825E-02    0.618E-02
DAV:  17    -0.405602000884E+02   -0.93963E-03   -0.27645E-04    88   0.577E-02    0.226E-02
DAV:  18    -0.405612997235E+02   -0.10996E-02   -0.19675E-04    88   0.356E-02    0.403E-02
DAV:  19    -0.405617639783E+02   -0.46425E-03   -0.11652E-04    80   0.225E-02    0.644E-02
DAV:  20    -0.405625754507E+02   -0.81147E-03   -0.16106E-04    88   0.244E-02    0.550E-02
DAV:  21    -0.405630676578E+02   -0.49221E-03   -0.94400E-05    80   0.209E-02    0.859E-03
DAV:  22    -0.405633892344E+02   -0.32158E-03   -0.54368E-05    80   0.152E-02    0.841E-03
DAV:  23    -0.405635607558E+02   -0.17152E-03   -0.26769E-05    72   0.114E-02    0.405E-03
DAV:  24    -0.405636662293E+02   -0.10547E-03   -0.22153E-05    72   0.842E-03    0.254E-03
DAV:  25    -0.405637326806E+02   -0.66451E-04   -0.12396E-05    72   0.718E-03
  10 F= -.40563733E+02 E0= -.40375933E+02  d E =-.106462E+02
       N       E                     dE             d eps       ncg     rms          rms(c)
DAV:   1    -0.408767751816E+02   -0.31311E+00   -0.17946E+02    96   0.557E+01    0.574E+00
DAV:   2    -0.508168711432E+02   -0.99401E+01   -0.46415E+01   136   0.156E+01    0.217E+01
DAV:   3    -0.431149383904E+02    0.77019E+01   -0.26577E+01   152   0.154E+01    0.695E+00
DAV:   4    -0.417038613003E+02    0.14111E+01   -0.62698E+00   152   0.717E+00    0.401E+00
DAV:   5    -0.414606558226E+02    0.24321E+00   -0.15325E+00   144   0.222E+00    0.250E+00
DAV:   6    -0.415721739729E+02   -0.11152E+00   -0.10144E+00   160   0.182E+00    0.456E+00
DAV:   7    -0.414383374185E+02    0.13384E+00   -0.12161E+00   160   0.222E+00    0.331E+00
DAV:   8    -0.414052659207E+02    0.33071E-01   -0.40777E-01   144   0.226E+00    0.156E+00
DAV:   9    -0.414220671661E+02   -0.16801E-01   -0.24385E-01   136   0.113E+00    0.140E+00
DAV:  10    -0.413973122049E+02    0.24755E-01   -0.12162E-01   152   0.862E-01    0.402E-01
DAV:  11    -0.414001599863E+02   -0.28478E-02   -0.24601E-02   144   0.467E-01    0.407E-01
DAV:  12    -0.413985019302E+02    0.16581E-02   -0.10289E-02   144   0.290E-01    0.219E-01
DAV:  13    -0.413996747204E+02   -0.11728E-02   -0.44240E-03   136   0.143E-01    0.317E-01
DAV:  14    -0.413993484441E+02    0.32628E-03   -0.24221E-03   128   0.120E-01    0.134E-01
DAV:  15    -0.413996717866E+02   -0.32334E-03   -0.85248E-04   112   0.606E-02    0.375E-02
DAV:  16    -0.414000055837E+02   -0.33380E-03   -0.16647E-04    72   0.405E-02    0.450E-02
DAV:  17    -0.414003728408E+02   -0.36726E-03   -0.85363E-05    72   0.288E-02    0.461E-02
DAV:  18    -0.414006618515E+02   -0.28901E-03   -0.65597E-05    72   0.216E-02    0.329E-02
DAV:  19    -0.414008705111E+02   -0.20866E-03   -0.35377E-05    72   0.173E-02    0.131E-02
DAV:  20    -0.414011548866E+02   -0.28438E-03   -0.47990E-05    72   0.150E-02    0.529E-03
DAV:  21    -0.414013207030E+02   -0.16582E-03   -0.30452E-05    72   0.119E-02    0.498E-03
DAV:  22    -0.414014291031E+02   -0.10840E-03   -0.21620E-05    72   0.995E-03    0.740E-03
DAV:  23    -0.414014897181E+02   -0.60615E-04   -0.15813E-05    72   0.781E-03
  11 F= -.41401490E+02 E0= -.41222310E+02  d E =-.114840E+02
       N       E                     dE             d eps       ncg     rms          rms(c)
DAV:   1    -0.438209652668E+02   -0.24195E+01   -0.10830E+02    96   0.702E+01    0.425E+00
DAV:   2    -0.482631701119E+02   -0.44422E+01   -0.45932E+01   144   0.162E+01    0.165E+01
DAV:   3    -0.460365952811E+02    0.22266E+01   -0.71494E+00   136   0.531E+00    0.751E+00
DAV:   4    -0.447850766107E+02    0.12515E+01   -0.62851E+00   144   0.682E+00    0.639E+00
DAV:   5    -0.443667496947E+02    0.41833E+00   -0.28140E+00   136   0.525E+00    0.363E+00
DAV:   6    -0.442532098131E+02    0.11354E+00   -0.74172E-01   152   0.158E+00    0.239E+00
DAV:   7    -0.443722016987E+02   -0.11899E+00   -0.12470E+00   128   0.908E-01    0.692E+00
DAV:   8    -0.442582791132E+02    0.11392E+00   -0.25191E-01   160   0.725E-01    0.395E+00
DAV:   9    -0.442158908150E+02    0.42388E-01   -0.38061E-01   144   0.100E+00    0.138E+00
DAV:  10    -0.442225644382E+02   -0.66736E-02   -0.22955E-01   136   0.101E+00    0.116E+00
DAV:  11    -0.442127102481E+02    0.98542E-02   -0.96292E-02   144   0.459E-01    0.663E-01
DAV:  12    -0.442139237844E+02   -0.12135E-02   -0.38494E-02   144   0.403E-01    0.791E-01
DAV:  13    -0.442123323963E+02    0.15914E-02   -0.41296E-03   136   0.197E-01    0.529E-01
DAV:  14    -0.442114266026E+02    0.90579E-03   -0.11387E-03   136   0.790E-02    0.106E-01
DAV:  15    -0.442116499921E+02   -0.22339E-03   -0.58957E-04    80   0.526E-02    0.334E-02
DAV:  16    -0.442118648952E+02   -0.21490E-03   -0.20326E-04    72   0.371E-02    0.718E-02
DAV:  17    -0.442120387984E+02   -0.17390E-03   -0.16146E-04    72   0.253E-02    0.167E-02
DAV:  18    -0.442122116862E+02   -0.17289E-03   -0.39068E-05    72   0.197E-02    0.104E-02
DAV:  19    -0.442123511007E+02   -0.13941E-03   -0.28507E-05    72   0.149E-02    0.834E-03
DAV:  20    -0.442124986112E+02   -0.14751E-03   -0.25779E-05    72   0.122E-02    0.229E-02
DAV:  21    -0.442125898762E+02   -0.91265E-04   -0.19563E-05    72   0.107E-02
  12 F= -.44212590E+02 E0= -.44036476E+02  d E =-.281110E+01
       N       E                     dE             d eps       ncg     rms          rms(c)
DAV:   1    -0.448475556816E+02   -0.63506E+00   -0.41156E+01    96   0.441E+01    0.280E+00
DAV:   2    -0.490890326726E+02   -0.42415E+01   -0.34410E+01   144   0.986E+00    0.159E+01
DAV:   3    -0.458355866104E+02    0.32534E+01   -0.26979E+00   136   0.354E+00    0.585E+00
DAV:   4    -0.451516676386E+02    0.68392E+00   -0.28044E+00   144   0.377E+00    0.404E+00
DAV:   5    -0.450669926339E+02    0.84675E-01   -0.69460E-01   144   0.303E+00    0.211E+00
DAV:   6    -0.450407779777E+02    0.26215E-01   -0.23387E-01   144   0.123E+00    0.922E-01
DAV:   7    -0.450393276136E+02    0.14504E-02   -0.61673E-02   144   0.617E-01    0.780E-01
DAV:   8    -0.450426203108E+02   -0.32927E-02   -0.77751E-02   152   0.918E-01    0.955E-01
DAV:   9    -0.450401339222E+02    0.24864E-02   -0.62538E-02   144   0.923E-01    0.751E-01
DAV:  10    -0.450370798878E+02    0.30540E-02   -0.18227E-02   144   0.376E-01    0.278E-01
DAV:  11    -0.450370908793E+02   -0.10991E-04   -0.39941E-03   144   0.161E-01    0.112E-01
DAV:  12    -0.450372152470E+02   -0.12437E-03   -0.10549E-03   128   0.106E-01    0.765E-02
DAV:  13    -0.450372757533E+02   -0.60506E-04   -0.55915E-04    96   0.659E-02
  13 F= -.45037276E+02 E0= -.44871173E+02  d E =-.363579E+01
       N       E                     dE             d eps       ncg     rms          rms(c)
DAV:   1    -0.448030543163E+02    0.23416E+00   -0.15880E+02    96   0.846E+01    0.530E+00
DAV:   2    -0.536224424938E+02   -0.88194E+01   -0.82326E+01   144   0.199E+01    0.197E+01
DAV:   3    -0.472286060393E+02    0.63938E+01   -0.19945E+01   152   0.109E+01    0.740E+00
DAV:   4    -0.459516057559E+02    0.12770E+01   -0.79323E+00   160   0.795E+00    0.567E+00
DAV:   5    -0.456764093600E+02    0.27520E+00   -0.19251E+00   152   0.325E+00    0.270E+00
DAV:   6    -0.456933827784E+02   -0.16973E-01   -0.66820E-01   152   0.226E+00    0.281E+00
DAV:   7    -0.456955184915E+02   -0.21357E-02   -0.11079E+00   152   0.166E+00    0.283E+00
DAV:   8    -0.456501567468E+02    0.45362E-01   -0.25172E-01   160   0.128E+00    0.139E+00
DAV:   9    -0.456402867709E+02    0.98700E-02   -0.21555E-01   152   0.140E+00    0.859E-01
DAV:  10    -0.456333498373E+02    0.69369E-02   -0.65320E-02   160   0.790E-01    0.559E-01
DAV:  11    -0.456329853281E+02    0.36451E-03   -0.16519E-02   144   0.348E-01    0.253E-01
DAV:  12    -0.456332017025E+02   -0.21637E-03   -0.49075E-03   152   0.202E-01    0.159E-01
DAV:  13    -0.456336618740E+02   -0.46017E-03   -0.22100E-03   144   0.144E-01    0.935E-02
DAV:  14    -0.456337807803E+02   -0.11891E-03   -0.76256E-04   136   0.700E-02    0.667E-02
DAV:  15    -0.456340318878E+02   -0.25111E-03   -0.17085E-04    72   0.384E-02    0.355E-02
DAV:  16    -0.456343297812E+02   -0.29789E-03   -0.88604E-05    72   0.305E-02    0.538E-02
DAV:  17    -0.456346083171E+02   -0.27854E-03   -0.60405E-05    72   0.253E-02    0.314E-02
DAV:  18    -0.456349836931E+02   -0.37538E-03   -0.81460E-05    72   0.179E-02    0.417E-02
DAV:  19    -0.456351561333E+02   -0.17244E-03   -0.39239E-05    72   0.135E-02    0.123E-02
DAV:  20    -0.456353974601E+02   -0.24133E-03   -0.35443E-05    72   0.126E-02    0.664E-03
DAV:  21    -0.456355580108E+02   -0.16055E-03   -0.27648E-05    72   0.100E-02    0.678E-03
DAV:  22    -0.456356617517E+02   -0.10374E-03   -0.19129E-05    72   0.857E-03    0.142E-02
DAV:  23    -0.456357231991E+02   -0.61447E-04   -0.13495E-05    72   0.737E-03
  14 F= -.45635723E+02 E0= -.45481318E+02  d E =-.423423E+01
       N       E                     dE             d eps       ncg     rms          rms(c)
DAV:   1    -0.482599795627E+02   -0.26243E+01   -0.10061E+02    96   0.590E+01    0.617E+00
DAV:   2    -0.579471920200E+02   -0.96872E+01   -0.10912E+02   144   0.149E+01    0.176E+01
DAV:   3    -0.516315766156E+02    0.63156E+01   -0.11408E+01   144   0.648E+00    0.901E+00
DAV:   4    -0.495848886343E+02    0.20467E+01   -0.10401E+01   152   0.810E+00    0.835E+00
DAV:   5    -0.486092155489E+02    0.97567E+00   -0.35163E+00   144   0.604E+00    0.475E+00
DAV:   6    -0.483408068126E+02    0.26841E+00   -0.50186E-01   152   0.155E+00    0.334E+00
DAV:   7    -0.481243556989E+02    0.21645E+00   -0.78044E-01   144   0.181E+00    0.218E+00
DAV:   8    -0.481350379888E+02   -0.10682E-01   -0.63257E-01   152   0.194E+00    0.329E+00
DAV:   9    -0.481491588219E+02   -0.14121E-01   -0.40318E-01   152   0.153E+00    0.252E+00
DAV:  10    -0.481256092052E+02    0.23550E-01   -0.27235E-01   152   0.821E-01    0.211E+00
DAV:  11    -0.480854472784E+02    0.40162E-01   -0.50619E-02   144   0.602E-01    0.602E-01
DAV:  12    -0.480928674215E+02   -0.74201E-02   -0.13936E-02   152   0.256E-01    0.906E-01
DAV:  13    -0.480883244183E+02    0.45430E-02   -0.96763E-03   136   0.219E-01    0.313E-01
DAV:  14    -0.480906687385E+02   -0.23443E-02   -0.23221E-03   136   0.958E-02    0.701E-01
DAV:  15    -0.480900207584E+02    0.64798E-03   -0.10215E-03   112   0.984E-02    0.532E-01
DAV:  16    -0.480889113372E+02    0.11094E-02   -0.64371E-04   104   0.920E-02    0.839E-02
DAV:  17    -0.480891821646E+02   -0.27083E-03   -0.10869E-04    72   0.440E-02    0.101E-01
DAV:  18    -0.480893060172E+02   -0.12385E-03   -0.21656E-04    72   0.270E-02    0.493E-02
DAV:  19    -0.480894163644E+02   -0.11035E-03   -0.44992E-05    72   0.205E-02    0.375E-02
DAV:  20    -0.480895841686E+02   -0.16780E-03   -0.61637E-05    72   0.156E-02    0.215E-02
DAV:  21    -0.480896974578E+02   -0.11329E-03   -0.16082E-05    72   0.116E-02    0.174E-02
DAV:  22    -0.480898116268E+02   -0.11417E-03   -0.25899E-05    72   0.113E-02    0.193E-02
DAV:  23    -0.480898986468E+02   -0.87020E-04   -0.15972E-05    72   0.914E-03
  15 F= -.48089899E+02 E0= -.47940489E+02  d E =-.245418E+01
       N       E                     dE             d eps       ncg     rms          rms(c)
DAV:   1    -0.487281339353E+02   -0.63832E+00   -0.47119E+01    96   0.399E+01    0.516E+00
DAV:   2    -0.571443300356E+02   -0.84162E+01   -0.86952E+01   144   0.116E+01    0.170E+01
DAV:   3    -0.513475997670E+02    0.57967E+01   -0.76871E+00   144   0.529E+00    0.821E+00
DAV:   4    -0.494825491561E+02    0.18651E+01   -0.68502E+00   152   0.632E+00    0.681E+00
DAV:   5    -0.489021255493E+02    0.58042E+00   -0.24048E+00   144   0.509E+00    0.418E+00
DAV:   6    -0.487065059847E+02    0.19562E+00   -0.36181E-01   152   0.140E+00    0.295E+00
DAV:   7    -0.485578371727E+02    0.14867E+00   -0.38736E-01   152   0.123E+00    0.123E+00
DAV:   8    -0.485552248215E+02    0.26124E-02   -0.20752E-01   152   0.112E+00    0.938E-01
DAV:   9    -0.485711130669E+02   -0.15888E-01   -0.85841E-02   152   0.818E-01    0.166E+00
DAV:  10    -0.485660036272E+02    0.51094E-02   -0.11963E-01   152   0.461E-01    0.198E+00
DAV:  11    -0.485498995520E+02    0.16104E-01   -0.10944E-01   152   0.433E-01    0.623E-01
DAV:  12    -0.485501611443E+02   -0.26159E-03   -0.54131E-03   152   0.279E-01    0.478E-01
DAV:  13    -0.485494610860E+02    0.70006E-03   -0.11510E-03   120   0.878E-02    0.381E-01
DAV:  14    -0.485506069290E+02   -0.11458E-02   -0.38460E-03   144   0.139E-01    0.525E-01
DAV:  15    -0.485499721115E+02    0.63482E-03   -0.19039E-03   120   0.157E-01    0.309E-01
DAV:  16    -0.485494601136E+02    0.51200E-03   -0.90865E-04    96   0.641E-02    0.128E-01
DAV:  17    -0.485496014256E+02   -0.14131E-03   -0.49561E-04   120   0.515E-02    0.617E-02
DAV:  18    -0.485496789124E+02   -0.77487E-04   -0.33033E-05    72   0.253E-02
  16 F= -.48549679E+02 E0= -.48409067E+02  d E =-.291396E+01
       N       E                     dE             d eps       ncg     rms          rms(c)
DAV:   1    -0.503876703748E+02   -0.18381E+01   -0.47211E+01    96   0.406E+01    0.603E+00
DAV:   2    -0.600500785522E+02   -0.96624E+01   -0.10407E+02   136   0.146E+01    0.203E+01
DAV:   3    -0.540207305486E+02    0.60293E+01   -0.19998E+01   152   0.119E+01    0.878E+00
DAV:   4    -0.511950910055E+02    0.28256E+01   -0.85709E+00   144   0.889E+00    0.660E+00
DAV:   5    -0.506376834481E+02    0.55741E+00   -0.15727E+00   144   0.345E+00    0.395E+00
DAV:   6    -0.503706636022E+02    0.26702E+00   -0.57622E-01   152   0.190E+00    0.358E+00
DAV:   7    -0.502272998154E+02    0.14336E+00   -0.13494E+00   152   0.154E+00    0.595E+00
DAV:   8    -0.501173369685E+02    0.10996E+00   -0.11220E+00   144   0.972E-01    0.172E+00
DAV:   9    -0.501264985588E+02   -0.91616E-02   -0.70656E-02   144   0.883E-01    0.169E+00
DAV:  10    -0.501332523317E+02   -0.67538E-02   -0.12700E-01   152   0.521E-01    0.189E+00
DAV:  11    -0.501283785873E+02    0.48737E-02   -0.22757E-01   160   0.651E-01    0.180E+00
DAV:  12    -0.501132788524E+02    0.15100E-01   -0.28657E-02   144   0.392E-01    0.114E+00
DAV:  13    -0.501090941947E+02    0.41847E-02   -0.10251E-02   136   0.186E-01    0.787E-01
DAV:  14    -0.501070179403E+02    0.20763E-02   -0.30823E-03   120   0.119E-01    0.289E-01
DAV:  15    -0.501074756069E+02   -0.45767E-03   -0.20626E-03   136   0.913E-02    0.134E-01
DAV:  16    -0.501075117515E+02   -0.36145E-04   -0.69878E-04   120   0.489E-02
  17 F= -.50107512E+02 E0= -.49973427E+02  d E =-.155783E+01
       N       E                     dE             d eps       ncg     rms          rms(c)
DAV:   1    -0.528548541313E+02   -0.27474E+01   -0.21968E+02    96   0.856E+01    0.912E+00
DAV:   2    -0.676345499825E+02   -0.14780E+02   -0.14333E+02   160   0.247E+01    0.273E+01
DAV:   3    -0.564429982530E+02    0.11192E+02   -0.60596E+01   152   0.236E+01    0.123E+01
DAV:   4    -0.517902542702E+02    0.46527E+01   -0.18746E+01   152   0.940E+00    0.532E+00
DAV:   5    -0.518231989499E+02   -0.32945E-01   -0.70098E+00   168   0.483E+00    0.857E+00
DAV:   6    -0.517086878596E+02    0.11451E+00   -0.83014E+00   144   0.391E+00    0.416E+00
DAV:   7    -0.515039589717E+02    0.20473E+00   -0.14287E+00   152   0.160E+00    0.315E+00
DAV:   8    -0.514290143291E+02    0.74945E-01   -0.59974E-01   152   0.156E+00    0.181E+00
DAV:   9    -0.514124586942E+02    0.16556E-01   -0.28745E-01   152   0.108E+00    0.145E+00
DAV:  10    -0.514053004436E+02    0.71583E-02   -0.12222E-01   160   0.867E-01    0.779E-01
DAV:  11    -0.514014485351E+02    0.38519E-02   -0.54449E-02   160   0.607E-01    0.623E-01
DAV:  12    -0.513998599763E+02    0.15886E-02   -0.31581E-02   152   0.759E-01    0.267E-01
DAV:  13    -0.514000858760E+02   -0.22590E-03   -0.11001E-02   152   0.397E-01    0.183E-01
DAV:  14    -0.514004983771E+02   -0.41250E-03   -0.22815E-03   144   0.134E-01    0.143E-01
DAV:  15    -0.514009008085E+02   -0.40243E-03   -0.50478E-04    96   0.636E-02    0.162E-01
DAV:  16    -0.514011368527E+02   -0.23604E-03   -0.29651E-04    72   0.474E-02    0.641E-02
DAV:  17    -0.514015418953E+02   -0.40504E-03   -0.17866E-04    72   0.334E-02    0.214E-02
DAV:  18    -0.514019760929E+02   -0.43420E-03   -0.64032E-05    72   0.253E-02    0.239E-02
DAV:  19    -0.514023448480E+02   -0.36876E-03   -0.43812E-05    72   0.216E-02    0.113E-02
DAV:  20    -0.514027836218E+02   -0.43877E-03   -0.72520E-05    80   0.212E-02    0.217E-02
DAV:  21    -0.514030890007E+02   -0.30538E-03   -0.34759E-05    72   0.149E-02    0.131E-02
DAV:  22    -0.514032346688E+02   -0.14567E-03   -0.22427E-05    72   0.137E-02    0.374E-03
DAV:  23    -0.514033514944E+02   -0.11683E-03   -0.18659E-05    72   0.116E-02    0.210E-03
DAV:  24    -0.514034256124E+02   -0.74118E-04   -0.13911E-05    72   0.811E-03
  18 F= -.51403426E+02 E0= -.51278158E+02  d E =-.285375E+01
       N       E                     dE             d eps       ncg     rms          rms(c)
DAV:   1    -0.517590920613E+02   -0.35574E+00   -0.22630E+01    96   0.270E+01    0.454E+00
DAV:   2    -0.569758073782E+02   -0.52167E+01   -0.32158E+01   160   0.857E+00    0.110E+01
DAV:   3    -0.528767726655E+02    0.40990E+01   -0.93682E+00   144   0.102E+01    0.833E+00
DAV:   4    -0.522326344802E+02    0.64414E+00   -0.50682E+00   144   0.598E+00    0.399E+00
DAV:   5    -0.519046684572E+02    0.32797E+00   -0.68035E-01   144   0.285E+00    0.318E+00
DAV:   6    -0.517355722090E+02    0.16910E+00   -0.11084E-01   144   0.757E-01    0.300E+00
DAV:   7    -0.514940392872E+02    0.24153E+00   -0.98785E-02   152   0.722E-01    0.230E+00
DAV:   8    -0.517344379055E+02   -0.24040E+00   -0.29286E+00   128   0.469E-01    0.801E+00
DAV:   9    -0.514648822761E+02    0.26956E+00   -0.11053E+00   144   0.727E-01    0.367E+00
DAV:  10    -0.514533118408E+02    0.11570E-01   -0.86458E-02   136   0.282E-01    0.214E+00
DAV:  11    -0.523976450861E+02   -0.94433E+00   -0.64799E+00   128   0.844E-01    0.103E+01
DAV:  12    -0.525583746902E+02   -0.16073E+00   -0.55105E-02   152   0.641E-01    0.102E+01
DAV:  13    -0.529572762010E+02   -0.39890E+00   -0.66237E-02   120   0.346E-01    0.149E+01
DAV:  14    -0.525050310059E+02    0.45225E+00   -0.42154E-01   144   0.674E-01    0.145E+01
DAV:  15    -0.515493865684E+02    0.95564E+00   -0.19831E+00   120   0.433E-01    0.600E+00
DAV:  16    -0.517587405847E+02   -0.20935E+00   -0.10017E-01   144   0.348E-01    0.886E+00
DAV:  17    -0.518036074080E+02   -0.44867E-01   -0.10114E-02   136   0.151E-01    0.956E+00
DAV:  18    -0.515623936231E+02    0.24121E+00   -0.32915E-01   136   0.279E-01    0.576E+00
DAV:  19    -0.514997482730E+02    0.62645E-01   -0.18062E-01   160   0.188E-01    0.363E+00
DAV:  20    -0.515394265161E+02   -0.39678E-01   -0.15915E-02   120   0.145E-01    0.467E+00
DAV:  21    -0.515808189743E+02   -0.41392E-01   -0.18876E-02   120   0.165E-01    0.588E+00
DAV:  22    -0.516081845989E+02   -0.27366E-01   -0.12896E-02   128   0.113E-01    0.663E+00
DAV:  23    -0.516070469710E+02    0.11376E-02   -0.13519E-04    88   0.522E-02    0.668E+00
DAV:  24    -0.515784777770E+02    0.28569E-01   -0.72055E-03    64   0.358E-02    0.604E+00
DAV:  25    -0.515418168249E+02    0.36661E-01   -0.12435E-02    88   0.751E-02    0.496E+00
DAV:  26    -0.515348834704E+02    0.69334E-02   -0.23701E-03    96   0.590E-02    0.458E+00
DAV:  27    -0.515371604042E+02   -0.22769E-02   -0.46955E-05    72   0.304E-02    0.459E+00
DAV:  28    -0.515284873740E+02    0.86730E-02   -0.68538E-04    88   0.597E-02    0.423E+00
DAV:  29    -0.514717022155E+02    0.56785E-01   -0.17206E-01   136   0.170E-01    0.125E+00
DAV:  30    -0.514766716809E+02   -0.49695E-02   -0.33555E-03   152   0.176E-01    0.924E-01
DAV:  31    -0.514784603329E+02   -0.17887E-02   -0.42565E-04   112   0.719E-02    0.880E-01
DAV:  32    -0.514781349333E+02    0.32540E-03   -0.14763E-03   152   0.101E-01    0.734E-01
DAV:  33    -0.514786764878E+02   -0.54155E-03   -0.48462E-04   112   0.741E-02    0.630E-01
DAV:  34    -0.514794133781E+02   -0.73689E-03   -0.46064E-04    96   0.463E-02    0.594E-01
DAV:  35    -0.514798111086E+02   -0.39773E-03   -0.53420E-05    72   0.266E-02    0.584E-01
DAV:  36    -0.514797054807E+02    0.10563E-03   -0.23279E-04    72   0.203E-02    0.495E-01
DAV:  37    -0.514800513424E+02   -0.34586E-03   -0.75320E-05    72   0.205E-02    0.488E-01
DAV:  38    -0.514802385420E+02   -0.18720E-03   -0.33200E-05    72   0.176E-02    0.504E-01
DAV:  39    -0.514802811585E+02   -0.42617E-04   -0.28603E-05    72   0.155E-02
  19 F= -.51480281E+02 E0= -.51350697E+02  d E =-.293060E+01
       N       E                     dE             d eps       ncg     rms          rms(c)
DAV:   1    -0.531199269994E+02   -0.16397E+01   -0.35389E+01    96   0.350E+01    0.325E+00
DAV:   2    -0.556871385176E+02   -0.25672E+01   -0.16646E+01   152   0.939E+00    0.118E+01
DAV:   3    -0.536348344504E+02    0.20523E+01   -0.15414E+01   152   0.802E+00    0.527E+00
DAV:   4    -0.531870341419E+02    0.44780E+00   -0.23163E+00   152   0.502E+00    0.307E+00
DAV:   5    -0.531507089866E+02    0.36325E-01   -0.66311E-01   152   0.136E+00    0.326E+00
DAV:   6    -0.531750804496E+02   -0.24371E-01   -0.92797E-01   152   0.932E-01    0.281E+00
DAV:   7    -0.530975307825E+02    0.77550E-01   -0.39384E-01   152   0.109E+00    0.121E+00
DAV:   8    -0.530953485576E+02    0.21822E-02   -0.81896E-02   144   0.883E-01    0.124E+00
DAV:   9    -0.530870635044E+02    0.82851E-02   -0.43297E-02   168   0.538E-01    0.500E-01
DAV:  10    -0.530867377318E+02    0.32577E-03   -0.27830E-02   152   0.619E-01    0.374E-01
DAV:  11    -0.530859116383E+02    0.82609E-03   -0.64371E-03   144   0.302E-01    0.944E-02
DAV:  12    -0.530862444894E+02   -0.33285E-03   -0.88286E-04   120   0.872E-02    0.646E-02
DAV:  13    -0.530863066729E+02   -0.62184E-04   -0.16142E-04    72   0.477E-02
  20 F= -.53086307E+02 E0= -.52961802E+02  d E =-.160603E+01
       N       E                     dE             d eps       ncg     rms          rms(c)
DAV:   1    -0.538623931061E+02   -0.77615E+00   -0.85997E+01    96   0.536E+01    0.438E+00
DAV:   2    -0.578721462776E+02   -0.40098E+01   -0.26217E+01   144   0.153E+01    0.203E+01
DAV:   3    -0.548120492064E+02    0.30601E+01   -0.36038E+01   152   0.137E+01    0.797E+00
DAV:   4    -0.541501129025E+02    0.66194E+00   -0.80781E+00   152   0.587E+00    0.606E+00
DAV:   5    -0.541472787228E+02    0.28342E-02   -0.55287E+00   152   0.175E+00    0.349E+00
DAV:   6    -0.538989504347E+02    0.24833E+00   -0.11381E+00   152   0.166E+00    0.240E+00
DAV:   7    -0.538617004259E+02    0.37250E-01   -0.44351E-01   160   0.195E+00    0.142E+00
DAV:   8    -0.538565865563E+02    0.51139E-02   -0.24815E-01   152   0.109E+00    0.146E+00
DAV:   9    -0.538444287324E+02    0.12158E-01   -0.84202E-02   152   0.802E-01    0.644E-01
DAV:  10    -0.538426845427E+02    0.17442E-02   -0.70243E-02   152   0.865E-01    0.380E-01
DAV:  11    -0.538424045090E+02    0.28003E-03   -0.13243E-02   144   0.388E-01    0.104E-01
DAV:  12    -0.538428789024E+02   -0.47439E-03   -0.18936E-03   144   0.120E-01    0.825E-02
DAV:  13    -0.538430106476E+02   -0.13175E-03   -0.53351E-04    88   0.645E-02    0.415E-02
DAV:  14    -0.538431435787E+02   -0.13293E-03   -0.19936E-04    72   0.423E-02    0.427E-02
DAV:  15    -0.538432531281E+02   -0.10955E-03   -0.19422E-04    72   0.290E-02    0.399E-02
DAV:  16    -0.538433652369E+02   -0.11211E-03   -0.19342E-04    72   0.200E-02    0.471E-02
DAV:  17    -0.538434618078E+02   -0.96571E-04   -0.12533E-04    72   0.162E-02
  21 F= -.53843462E+02 E0= -.53728408E+02  d E =-.236318E+01
       N       E                     dE             d eps       ncg     rms          rms(c)
DAV:   1    -0.539018573737E+02   -0.58492E-01   -0.52735E+00    96   0.133E+01    0.127E+00
DAV:   2    -0.543489741131E+02   -0.44712E+00   -0.31928E+00   160   0.364E+00    0.597E+00
DAV:   3    -0.540769297260E+02    0.27204E+00   -0.24967E+00   160   0.268E+00    0.365E+00
DAV:   4    -0.538883460042E+02    0.18858E+00   -0.41232E-01   152   0.108E+00    0.539E-01
DAV:   5    -0.539021630577E+02   -0.13817E-01   -0.95911E-02   152   0.986E-01    0.105E+00
DAV:   6    -0.538983299963E+02    0.38331E-02   -0.91924E-02   152   0.636E-01    0.836E-01
DAV:   7    -0.538951451152E+02    0.31849E-02   -0.42330E-02   152   0.499E-01    0.396E-01
DAV:   8    -0.538944660325E+02    0.67908E-03   -0.14782E-02   144   0.394E-01    0.134E-01
DAV:   9    -0.538943361322E+02    0.12990E-03   -0.22222E-03   144   0.174E-01    0.806E-02
DAV:  10    -0.538943787511E+02   -0.42619E-04   -0.92472E-04   112   0.699E-02
  22 F= -.53894379E+02 E0= -.53775892E+02  d E =-.241410E+01
       N       E                     dE             d eps       ncg     rms          rms(c)
DAV:   1    -0.546715832793E+02   -0.77725E+00   -0.20441E+01    96   0.346E+01    0.233E+00
DAV:   2    -0.565050891641E+02   -0.18335E+01   -0.87002E+00   144   0.796E+00    0.743E+00
DAV:   3    -0.550408540626E+02    0.14642E+01   -0.44276E+00   144   0.360E+00    0.357E+00
DAV:   4    -0.547984764094E+02    0.24238E+00   -0.53027E-01   144   0.168E+00    0.204E+00
DAV:   5    -0.547763425225E+02    0.22134E-01   -0.17430E-01   160   0.955E-01    0.113E+00
DAV:   6    -0.547687755036E+02    0.75670E-02   -0.67389E-02   160   0.867E-01    0.862E-01
DAV:   7    -0.547950520985E+02   -0.26277E-01   -0.17756E-01   152   0.601E-01    0.195E+00
DAV:   8    -0.547710429620E+02    0.24009E-01   -0.48623E-02   152   0.491E-01    0.853E-01
DAV:   9    -0.547679685084E+02    0.30745E-02   -0.25822E-02   152   0.414E-01    0.451E-01
DAV:  10    -0.547676274559E+02    0.34105E-03   -0.70182E-03   152   0.192E-01    0.335E-01
DAV:  11    -0.547674720588E+02    0.15540E-03   -0.18769E-03   136   0.151E-01    0.877E-02
DAV:  12    -0.547676305997E+02   -0.15854E-03   -0.85603E-04   112   0.112E-01    0.136E-01
DAV:  13    -0.547675687000E+02    0.61900E-04   -0.27305E-04    72   0.609E-02
  23 F= -.54767569E+02 E0= -.54655414E+02  d E =-.873190E+00
       N       E                     dE             d eps       ncg     rms          rms(c)
DAV:   1    -0.550969866691E+02   -0.32936E+00   -0.18364E+02    96   0.100E+02    0.456E+00
DAV:   2    -0.590183661195E+02   -0.39214E+01   -0.29814E+01   120   0.225E+01    0.959E+00
DAV:   3    -0.574537036092E+02    0.15647E+01   -0.17996E+01   152   0.914E+00    0.552E+00
DAV:   4    -0.567257630166E+02    0.72794E+00   -0.23403E+00   160   0.516E+00    0.380E+00
DAV:   5    -0.565624363475E+02    0.16333E+00   -0.25898E-01   152   0.165E+00    0.293E+00
DAV:   6    -0.571247873993E+02   -0.56235E+00   -0.79250E+00   136   0.129E+00    0.111E+01
DAV:   7    -0.564445161381E+02    0.68027E+00   -0.46583E+00   136   0.143E+00    0.139E+00
DAV:   8    -0.565963213628E+02   -0.15181E+00   -0.93284E-01   152   0.131E+00    0.555E+00
DAV:   9    -0.564758616448E+02    0.12046E+00   -0.15615E+00   136   0.107E+00    0.197E+00
DAV:  10    -0.564587023724E+02    0.17159E-01   -0.77089E-02   144   0.921E-01    0.924E-01
DAV:  11    -0.564521593544E+02    0.65430E-02   -0.27263E-02   136   0.597E-01    0.341E-01
DAV:  12    -0.564523544555E+02   -0.19510E-03   -0.31270E-03   136   0.212E-01    0.196E-01
DAV:  13    -0.564530477802E+02   -0.69332E-03   -0.77282E-04   120   0.104E-01    0.245E-01
DAV:  14    -0.564529246203E+02    0.12316E-03   -0.23943E-04    88   0.603E-02    0.148E-01
DAV:  15    -0.564529918841E+02   -0.67264E-04   -0.94345E-05    80   0.424E-02
  24 F= -.56452992E+02 E0= -.56355345E+02  d E =-.255861E+01
       N       E                     dE             d eps       ncg     rms          rms(c)
DAV:   1    -0.493923252870E+02    0.70606E+01   -0.71914E+02    96   0.187E+02    0.880E+00
DAV:   2    -0.644514086517E+02   -0.15059E+02   -0.16341E+02   120   0.478E+01    0.224E+01
DAV:   3    -0.614414835878E+02    0.30099E+01   -0.69409E+01   152   0.278E+01    0.961E+00
DAV:   4    -0.586510588462E+02    0.27904E+01   -0.57925E+00   152   0.843E+00    0.506E+00
DAV:   5    -0.578249091288E+02    0.82615E+00   -0.15088E+00   144   0.330E+00    0.444E+00
DAV:   6    -0.568457692879E+02    0.97914E+00   -0.15004E+00   144   0.345E+00    0.435E+00
DAV:   7    -0.570413426963E+02   -0.19557E+00   -0.12641E+00   144   0.387E+00    0.540E+00
DAV:   8    -0.619064273324E+02   -0.48651E+01   -0.20881E+01   152   0.387E+00    0.138E+01
DAV:   9    -0.628301287655E+02   -0.92370E+00   -0.32971E+01   160   0.522E+00    0.157E+01
DAV:  10    -0.637512593723E+02   -0.92113E+00   -0.86048E-01   144   0.102E+00    0.163E+01
DAV:  11    -0.621563067458E+02    0.15950E+01   -0.10975E-01   136   0.521E-01    0.159E+01
DAV:  12    -0.596126522629E+02    0.25437E+01   -0.15266E-01   120   0.432E-01    0.154E+01
DAV:  13    -0.569393503427E+02    0.26733E+01   -0.83864E+00   120   0.792E-01    0.280E+00
DAV:  14    -0.571800036286E+02   -0.24065E+00   -0.16351E+00   144   0.214E+00    0.286E+00
DAV:  15    -0.578458234972E+02   -0.66582E+00   -0.17282E-01   120   0.117E+00    0.298E+00
DAV:  16    -0.582705122291E+02   -0.42469E+00   -0.52665E-02   128   0.566E-01    0.322E+00
DAV:  17    -0.588014084220E+02   -0.53090E+00   -0.62079E-02   128   0.616E-01    0.348E+00
DAV:  18    -0.586479137463E+02    0.15349E+00   -0.10043E-02   152   0.344E-01    0.347E+00
DAV:  19    -0.580410233802E+02    0.60689E+00   -0.32678E-02   128   0.301E-01    0.320E+00
DAV:  20    -0.578045211021E+02    0.23650E+00   -0.74038E-03   144   0.159E-01    0.310E+00
DAV:  21    -0.578011770752E+02    0.33440E-02   -0.13911E-04    80   0.442E-02    0.310E+00
DAV:  22    -0.578145734871E+02   -0.13396E-01   -0.58844E-05    80   0.256E-02    0.311E+00
DAV:  23    -0.577151902652E+02    0.99383E-01   -0.12329E-03    88   0.619E-02    0.306E+00
DAV:  24    -0.573670805025E+02    0.34811E+00   -0.16178E-02   128   0.256E-01    0.295E+00
DAV:  25    -0.572054018050E+02    0.16168E+00   -0.65893E-03   144   0.218E-01    0.296E+00
DAV:  26    -0.571957940380E+02    0.96078E-02   -0.60974E-04   112   0.770E-02    0.294E+00
DAV:  27    -0.572096003067E+02   -0.13806E-01   -0.23224E-03   120   0.183E-01    0.307E+00
DAV:  28    -0.572096933037E+02   -0.92997E-04   -0.43818E-04   112   0.595E-02
  25 F= -.57209693E+02 E0= -.57166854E+02  d E =-.331531E+01
       N       E                     dE             d eps       ncg     rms          rms(c)
DAV:   1    -0.561001188318E+02    0.11095E+01   -0.15878E+02    96   0.951E+01    0.449E+00
DAV:   2    -0.636522415513E+02   -0.75521E+01   -0.45708E+01   120   0.202E+01    0.160E+01
DAV:   3    -0.574513338868E+02    0.62009E+01   -0.34487E+00   128   0.593E+00    0.412E+00
DAV:   4    -0.572790485935E+02    0.17229E+00   -0.94595E-01   168   0.320E+00    0.278E+00
DAV:   5    -0.572605726826E+02    0.18476E-01   -0.75987E-01   160   0.261E+00    0.281E+00
DAV:   6    -0.572396446854E+02    0.20928E-01   -0.88699E-01   160   0.264E+00    0.190E+00
DAV:   7    -0.572127144947E+02    0.26930E-01   -0.49701E-01   152   0.266E+00    0.100E+00
DAV:   8    -0.572063942997E+02    0.63202E-02   -0.10310E-01   136   0.117E+00    0.444E-01
DAV:   9    -0.572059148860E+02    0.47941E-03   -0.10194E-02   136   0.395E-01    0.279E-01
DAV:  10    -0.572072799493E+02   -0.13651E-02   -0.44796E-03   144   0.201E-01    0.363E-01
DAV:  11    -0.572063117461E+02    0.96820E-03   -0.34010E-03   144   0.233E-01    0.749E-02
DAV:  12    -0.572066344167E+02   -0.32267E-03   -0.88877E-04   128   0.928E-02    0.728E-02
DAV:  13    -0.572068471548E+02   -0.21274E-03   -0.12245E-04    80   0.487E-02    0.378E-02
DAV:  14    -0.572071015613E+02   -0.25441E-03   -0.68195E-05    80   0.296E-02    0.218E-02
DAV:  15    -0.572073144635E+02   -0.21290E-03   -0.39134E-05    80   0.197E-02    0.451E-02
DAV:  16    -0.572074189854E+02   -0.10452E-03   -0.18530E-05    72   0.145E-02    0.936E-03
DAV:  17    -0.572075588322E+02   -0.13985E-03   -0.25282E-05    80   0.114E-02    0.466E-03
DAV:  18    -0.572076836808E+02   -0.12485E-03   -0.22486E-05    56   0.947E-03    0.311E-03
DAV:  19    -0.572077552116E+02   -0.71531E-04   -0.10351E-05    48   0.736E-03
  26 F= -.57207755E+02 E0= -.57111906E+02  d E =-.331338E+01
       N       E                     dE             d eps       ncg     rms          rms(c)
DAV:   1    -0.575783814435E+02   -0.37070E+00   -0.36727E+00   104   0.144E+01    0.563E-01
DAV:   2    -0.576893284831E+02   -0.11095E+00   -0.63165E-01   152   0.300E+00    0.408E+00
DAV:   3    -0.576060585276E+02    0.83270E-01   -0.22984E-01   152   0.749E-01    0.937E-01
DAV:   4    -0.576105808329E+02   -0.45223E-02   -0.62411E-02   152   0.724E-01    0.687E-01
DAV:   5    -0.576072734823E+02    0.33074E-02   -0.23966E-02   152   0.507E-01    0.256E-01
DAV:   6    -0.576082909033E+02   -0.10174E-02   -0.13371E-02   144   0.435E-01    0.256E-01
DAV:   7    -0.576073882165E+02    0.90269E-03   -0.84787E-03   144   0.379E-01    0.755E-02
DAV:   8    -0.576075088085E+02   -0.12059E-03   -0.14115E-03   136   0.128E-01    0.442E-02
DAV:   9    -0.576075274428E+02   -0.18634E-04   -0.24991E-04    72   0.544E-02
  27 F= -.57607527E+02 E0= -.57510915E+02  d E =-.399772E+00
       N       E                     dE             d eps       ncg     rms          rms(c)
DAV:   1    -0.582997288302E+02   -0.69222E+00   -0.33650E+01    96   0.430E+01    0.176E+00
DAV:   2    -0.594694974473E+02   -0.11698E+01   -0.11384E+01   152   0.890E+00    0.114E+01
DAV:   3    -0.585873941498E+02    0.88210E+00   -0.70597E+00   144   0.230E+00    0.240E+00
DAV:   4    -0.585904635243E+02   -0.30694E-02   -0.67886E-01   152   0.250E+00    0.240E+00
DAV:   5    -0.585531071746E+02    0.37356E-01   -0.36379E-01   152   0.171E+00    0.887E-01
DAV:   6    -0.585574714083E+02   -0.43642E-02   -0.14039E-01   152   0.136E+00    0.753E-01
DAV:   7    -0.585499971802E+02    0.74742E-02   -0.80971E-02   144   0.117E+00    0.238E-01
DAV:   8    -0.585504099973E+02   -0.41282E-03   -0.12414E-02   144   0.379E-01    0.136E-01
DAV:   9    -0.585506602404E+02   -0.25024E-03   -0.21697E-03   144   0.152E-01    0.999E-02
DAV:  10    -0.585506290375E+02    0.31203E-04   -0.99471E-04   104   0.866E-02
  28 F= -.58550629E+02 E0= -.58450353E+02  d E =-.134287E+01
       N       E                     dE             d eps       ncg     rms          rms(c)
DAV:   1    -0.579524665479E+02    0.59819E+00   -0.14021E+02    96   0.850E+01    0.404E+00
DAV:   2    -0.629398217905E+02   -0.49874E+01   -0.58609E+01   136   0.181E+01    0.161E+01
DAV:   3    -0.590533417952E+02    0.38865E+01   -0.19203E+00   144   0.437E+00    0.410E+00
DAV:   4    -0.588874778541E+02    0.16586E+00   -0.14198E+00   152   0.379E+00    0.293E+00
DAV:   5    -0.588564528104E+02    0.31025E-01   -0.15909E+00   152   0.312E+00    0.349E+00
DAV:   6    -0.587877907519E+02    0.68662E-01   -0.12095E+00   160   0.348E+00    0.156E+00
DAV:   7    -0.587736182397E+02    0.14173E-01   -0.28011E-01   144   0.265E+00    0.493E-01
DAV:   8    -0.587760019206E+02   -0.23837E-02   -0.50365E-02   152   0.749E-01    0.425E-01
DAV:   9    -0.587744087919E+02    0.15931E-02   -0.16033E-02   152   0.334E-01    0.168E-01
DAV:  10    -0.587746878558E+02   -0.27906E-03   -0.36828E-03   152   0.212E-01    0.112E-01
DAV:  11    -0.587748175976E+02   -0.12974E-03   -0.13453E-03   144   0.130E-01    0.605E-02
DAV:  12    -0.587749831659E+02   -0.16557E-03   -0.21681E-04    88   0.632E-02    0.512E-02
DAV:  13    -0.587751487067E+02   -0.16554E-03   -0.94163E-05    72   0.446E-02    0.326E-02
DAV:  14    -0.587752810764E+02   -0.13237E-03   -0.56648E-05    72   0.285E-02    0.321E-02
DAV:  15    -0.587753961812E+02   -0.11510E-03   -0.39532E-05    72   0.235E-02    0.130E-02
DAV:  16    -0.587755364469E+02   -0.14027E-03   -0.27435E-05    72   0.174E-02    0.887E-03
DAV:  17    -0.587756544959E+02   -0.11805E-03   -0.18278E-05    72   0.140E-02    0.792E-03
DAV:  18    -0.587757756068E+02   -0.12111E-03   -0.19792E-05    72   0.135E-02    0.300E-03
DAV:  19    -0.587758404626E+02   -0.64856E-04   -0.12789E-05    72   0.903E-03
  29 F= -.58775840E+02 E0= -.58665589E+02  d E =-.156809E+01
       N       E                     dE             d eps       ncg     rms          rms(c)
DAV:   1    -0.588717975830E+02   -0.96022E-01   -0.33064E+01    96   0.422E+01    0.303E+00
DAV:   2    -0.606108514884E+02   -0.17391E+01   -0.12377E+01   136   0.930E+00    0.614E+00
DAV:   3    -0.599109631497E+02    0.69989E+00   -0.64405E+00   160   0.738E+00    0.519E+00
DAV:   4    -0.593055312810E+02    0.60543E+00   -0.11160E+00   144   0.455E+00    0.286E+00
DAV:   5    -0.591190086721E+02    0.18652E+00   -0.88260E-02   144   0.878E-01    0.272E+00
DAV:   6    -0.593672045713E+02   -0.24820E+00   -0.53125E+00   128   0.686E-01    0.826E+00
DAV:   7    -0.596611784102E+02   -0.29397E+00   -0.10280E-01   152   0.968E-01    0.104E+01
DAV:   8    -0.590919053846E+02    0.56927E+00   -0.75779E-02   136   0.775E-01    0.514E+00
DAV:   9    -0.590396838936E+02    0.52221E-01   -0.17649E+00   144   0.557E-01    0.235E+00
DAV:  10    -0.590125861481E+02    0.27098E-01   -0.84111E-02   136   0.388E-01    0.379E-01
DAV:  11    -0.590261639291E+02   -0.13578E-01   -0.36842E-02   152   0.253E-01    0.144E+00
DAV:  12    -0.590110980674E+02    0.15066E-01   -0.27418E-02   120   0.127E-01    0.345E-01
DAV:  13    -0.590115071888E+02   -0.40912E-03   -0.54797E-04   104   0.918E-02    0.141E-01
DAV:  14    -0.590131005945E+02   -0.15934E-02   -0.24554E-04    88   0.524E-02    0.516E-01
DAV:  15    -0.590116123144E+02    0.14883E-02   -0.19889E-04    88   0.489E-02    0.972E-02
DAV:  16    -0.590120651443E+02   -0.45283E-03   -0.12519E-04    80   0.416E-02    0.176E-01
DAV:  17    -0.590119250927E+02    0.14005E-03   -0.51758E-05    72   0.270E-02    0.819E-02
DAV:  18    -0.590119491396E+02   -0.24047E-04   -0.23993E-05    72   0.163E-02
  30 F= -.59011949E+02 E0= -.58905519E+02  d E =-.180419E+01
       N       E                     dE             d eps       ncg     rms          rms(c)
DAV:   1    -0.590182436013E+02   -0.63185E-02   -0.79998E-01    96   0.660E+00    0.378E-01
DAV:   2    -0.591630700809E+02   -0.14483E+00   -0.90451E-01   128   0.141E+00    0.572E+00
DAV:   3    -0.590096561136E+02    0.15341E+00   -0.91051E-01   128   0.541E-01    0.441E-01
DAV:   4    -0.590228747645E+02   -0.13219E-01   -0.16569E-02   152   0.415E-01    0.278E-01
DAV:   5    -0.590229808534E+02   -0.10609E-03   -0.11810E-02   152   0.303E-01    0.265E-01
DAV:   6    -0.590225484899E+02    0.43236E-03   -0.60953E-03   152   0.262E-01    0.102E-01
DAV:   7    -0.590226827172E+02   -0.13423E-03   -0.22921E-03   144   0.202E-01    0.618E-02
DAV:   8    -0.590226537000E+02    0.29017E-04   -0.53035E-04   120   0.960E-02
  31 F= -.59022654E+02 E0= -.58916012E+02  d E =-.181490E+01
       N       E                     dE             d eps       ncg     rms          rms(c)
DAV:   1    -0.593827209999E+02   -0.36004E+00   -0.16873E+00   104   0.101E+01    0.463E-01
DAV:   2    -0.594247803353E+02   -0.42059E-01   -0.21030E-01   136   0.217E+00    0.265E+00
DAV:   3    -0.593941247523E+02    0.30656E-01   -0.24602E-02   136   0.588E-01    0.860E-01
DAV:   4    -0.593935123191E+02    0.61243E-03   -0.34817E-02   152   0.718E-01    0.332E-01
DAV:   5    -0.593934052000E+02    0.10712E-03   -0.20134E-02   152   0.489E-01    0.310E-01
DAV:   6    -0.593929026166E+02    0.50258E-03   -0.10424E-02   152   0.298E-01    0.196E-01
DAV:   7    -0.593927374068E+02    0.16521E-03   -0.36875E-03   144   0.217E-01    0.601E-02
DAV:   8    -0.593927789257E+02   -0.41519E-04   -0.51745E-04   112   0.810E-02
  32 F= -.59392779E+02 E0= -.59285920E+02  d E =-.370125E+00
       N       E                     dE             d eps       ncg     rms          rms(c)
DAV:   1    -0.602516297109E+02   -0.85889E+00   -0.15160E+01    96   0.301E+01    0.137E+00
DAV:   2    -0.605466381283E+02   -0.29501E+00   -0.32017E+00   136   0.652E+00    0.656E+00
DAV:   3    -0.603901449078E+02    0.15649E+00   -0.30959E+00   128   0.175E+00    0.247E+00
DAV:   4    -0.603506408595E+02    0.39504E-01   -0.31106E-01   152   0.224E+00    0.903E-01
DAV:   5    -0.603435903301E+02    0.70505E-02   -0.98923E-02   144   0.131E+00    0.477E-01
DAV:   6    -0.603526740132E+02   -0.90837E-02   -0.62513E-02   144   0.901E-01    0.955E-01
DAV:   7    -0.603433160819E+02    0.93579E-02   -0.68150E-02   152   0.744E-01    0.414E-01
DAV:   8    -0.603436903048E+02   -0.37422E-03   -0.66681E-03   144   0.256E-01    0.909E-02
DAV:   9    -0.603438780083E+02   -0.18770E-03   -0.11498E-03   120   0.882E-02    0.571E-02
DAV:  10    -0.603439596679E+02   -0.81660E-04   -0.31764E-04    96   0.639E-02
  33 F= -.60343960E+02 E0= -.60237595E+02  d E =-.132131E+01
       N       E                     dE             d eps       ncg     rms          rms(c)
DAV:   1    -0.612413222018E+02   -0.89744E+00   -0.60964E+01   104   0.596E+01    0.273E+00
DAV:   2    -0.623361074384E+02   -0.10948E+01   -0.13381E+01   128   0.128E+01    0.101E+01
DAV:   3    -0.618275623905E+02    0.50855E+00   -0.14178E+01   120   0.378E+00    0.360E+00
DAV:   4    -0.616294429720E+02    0.19812E+00   -0.10954E+00   152   0.477E+00    0.233E+00
DAV:   5    -0.615894429792E+02    0.40000E-01   -0.46195E-01   144   0.226E+00    0.179E+00
DAV:   6    -0.615881298925E+02    0.13131E-02   -0.39517E-01   152   0.177E+00    0.149E+00
DAV:   7    -0.615854775471E+02    0.26523E-02   -0.13216E-01   144   0.159E+00    0.185E+00
DAV:   8    -0.615712511044E+02    0.14226E-01   -0.27660E-02   152   0.502E-01    0.519E-01
DAV:   9    -0.615723643556E+02   -0.11133E-02   -0.87853E-03   152   0.257E-01    0.388E-01
DAV:  10    -0.615717218863E+02    0.64247E-03   -0.26032E-03   152   0.190E-01    0.806E-02
DAV:  11    -0.615721035325E+02   -0.38165E-03   -0.61197E-04   120   0.956E-02    0.468E-02
DAV:  12    -0.615723578499E+02   -0.25432E-03   -0.15135E-04    80   0.475E-02    0.235E-02
DAV:  13    -0.615725320051E+02   -0.17416E-03   -0.46829E-05    72   0.333E-02    0.236E-02
DAV:  14    -0.615727234203E+02   -0.19142E-03   -0.29811E-05    72   0.187E-02    0.767E-03
DAV:  15    -0.615729385851E+02   -0.21516E-03   -0.32265E-05    72   0.152E-02    0.141E-02
DAV:  16    -0.615731461789E+02   -0.20759E-03   -0.39703E-05    72   0.165E-02    0.896E-03
DAV:  17    -0.615732430935E+02   -0.96915E-04   -0.22372E-05    72   0.120E-02
  34 F= -.61573243E+02 E0= -.61467460E+02  d E =-.255059E+01
       N       E                     dE             d eps       ncg     rms          rms(c)
DAV:   1    -0.601691116656E+02    0.14040E+01   -0.24221E+02   104   0.115E+02    0.558E+00
DAV:   2    -0.625103031347E+02   -0.23412E+01   -0.37997E+01   136   0.275E+01    0.955E+00
DAV:   3    -0.624367440987E+02    0.73559E-01   -0.25777E+01   152   0.109E+01    0.475E+00
DAV:   4    -0.618428902335E+02    0.59385E+00   -0.43002E+00   144   0.459E+00    0.509E+00
DAV:   5    -0.615704267014E+02    0.27246E+00   -0.28395E+00   152   0.456E+00    0.487E+00
DAV:   6    -0.616858323566E+02   -0.11541E+00   -0.60284E+00   144   0.411E+00    0.795E+00
DAV:   7    -0.613480165591E+02    0.33782E+00   -0.18268E+00   144   0.166E+00    0.198E+00
DAV:   8    -0.618308206914E+02   -0.48280E+00   -0.36894E+00   144   0.310E+00    0.979E+00
DAV:   9    -0.613094283012E+02    0.52139E+00   -0.53652E+00   136   0.844E-01    0.158E+00
DAV:  10    -0.613274438908E+02   -0.18016E-01   -0.11087E-01   152   0.471E-01    0.685E-01
DAV:  11    -0.613246529628E+02    0.27909E-02   -0.82365E-03   152   0.226E-01    0.373E-01
DAV:  12    -0.613262380405E+02   -0.15851E-02   -0.23834E-03   144   0.163E-01    0.408E-01
DAV:  13    -0.613255294907E+02    0.70855E-03   -0.39282E-03   120   0.963E-02    0.884E-02
DAV:  14    -0.613260141964E+02   -0.48471E-03   -0.23699E-04    88   0.683E-02    0.862E-02
DAV:  15    -0.613263709014E+02   -0.35670E-03   -0.95532E-05    72   0.412E-02    0.755E-02
DAV:  16    -0.613267948710E+02   -0.42397E-03   -0.14805E-04    80   0.349E-02    0.764E-02
DAV:  17    -0.613270095095E+02   -0.21464E-03   -0.45108E-05    72   0.273E-02    0.438E-02
DAV:  18    -0.613273182943E+02   -0.30878E-03   -0.80167E-05    80   0.234E-02    0.292E-02
DAV:  19    -0.613274697456E+02   -0.15145E-03   -0.24947E-05    72   0.163E-02    0.616E-03
DAV:  20    -0.613276263871E+02   -0.15664E-03   -0.32662E-05    72   0.139E-02    0.475E-03
DAV:  21    -0.613277109316E+02   -0.84545E-04   -0.20984E-05    72   0.964E-03
  35 F= -.61327711E+02 E0= -.61223408E+02  d E =-.230506E+01
       N       E                     dE             d eps       ncg     rms          rms(c)
DAV:   1    -0.615920722230E+02   -0.26445E+00   -0.80941E+01    96   0.686E+01    0.445E+00
DAV:   2    -0.638706595429E+02   -0.22786E+01   -0.24518E+01   112   0.157E+01    0.529E+00
DAV:   3    -0.627861292430E+02    0.10845E+01   -0.60353E+00   144   0.778E+00    0.538E+00
DAV:   4    -0.622710572690E+02    0.51507E+00   -0.19619E+00   152   0.502E+00    0.329E+00
DAV:   5    -0.619640049442E+02    0.30705E+00   -0.19219E-01   128   0.119E+00    0.143E+00
DAV:   6    -0.623459993426E+02   -0.38199E+00   -0.40565E+00   144   0.163E+00    0.869E+00
DAV:   7    -0.619204270269E+02    0.42557E+00   -0.47755E+00   128   0.835E-01    0.172E+00
DAV:   8    -0.622915943269E+02   -0.37117E+00   -0.44482E+00   144   0.110E+00    0.838E+00
DAV:   9    -0.619054547694E+02    0.38614E+00   -0.34665E+00   128   0.122E+00    0.102E+00
DAV:  10    -0.619613405882E+02   -0.55886E-01   -0.20828E-02   136   0.684E-01    0.207E+00
[...]
DAV:   6    -0.879910654885E+02   -0.68770E-04   -0.59962E-04   120   0.161E-01
 210 F= -.87991065E+02 E0= -.87914081E+02  d E =-.814976E-01
       N       E                     dE             d eps       ncg     rms          rms(c)
DAV:   1    -0.880106734604E+02   -0.19677E-01   -0.34502E-01   112   0.532E+00    0.171E-01
DAV:   2    -0.880159143597E+02   -0.52409E-02   -0.40320E-02   112   0.108E+00    0.601E-01
DAV:   3    -0.880134329504E+02    0.24814E-02   -0.23824E-03   136   0.253E-01    0.228E-01
DAV:   4    -0.880137619027E+02   -0.32895E-03   -0.12269E-03   136   0.192E-01    0.108E-01
DAV:   5    -0.880137179213E+02    0.43981E-04   -0.11476E-03   128   0.209E-01    0.740E-02
DAV:   6    -0.880137601608E+02   -0.42240E-04   -0.51454E-04   112   0.158E-01
 211 F= -.88013760E+02 E0= -.87936636E+02  d E =-.226947E-01
       N       E                     dE             d eps       ncg     rms          rms(c)
DAV:   1    -0.880243689634E+02   -0.10651E-01   -0.31054E+00   112   0.159E+01    0.506E-01
DAV:   2    -0.880672601070E+02   -0.42891E-01   -0.36465E-01    96   0.325E+00    0.157E+00
DAV:   3    -0.880547054123E+02    0.12555E-01   -0.21330E-02   144   0.723E-01    0.762E-01
DAV:   4    -0.880529450021E+02    0.17604E-02   -0.11484E-02   144   0.606E-01    0.329E-01
DAV:   5    -0.880521368429E+02    0.80816E-03   -0.10361E-02   136   0.601E-01    0.201E-01
DAV:   6    -0.880522703216E+02   -0.13348E-03   -0.36405E-03   144   0.395E-01    0.107E-01
DAV:   7    -0.880522147325E+02    0.55589E-04   -0.14696E-03   136   0.210E-01    0.330E-02
DAV:   8    -0.880522533733E+02   -0.38641E-04   -0.10208E-04    80   0.651E-02
 212 F= -.88052253E+02 E0= -.87975110E+02  d E =-.611879E-01
       N       E                     dE             d eps       ncg     rms          rms(c)
DAV:   1    -0.880515692463E+02    0.64549E-03   -0.38600E-01   112   0.562E+00    0.180E-01
DAV:   2    -0.880582204148E+02   -0.66512E-02   -0.45773E-02   112   0.116E+00    0.716E-01
DAV:   3    -0.880546068207E+02    0.36136E-02   -0.27849E-03   128   0.282E-01    0.225E-01
DAV:   4    -0.880551555809E+02   -0.54876E-03   -0.17289E-03   136   0.234E-01    0.123E-01
DAV:   5    -0.880550277945E+02    0.12779E-03   -0.12992E-03   128   0.223E-01    0.690E-02
DAV:   6    -0.880551001907E+02   -0.72396E-04   -0.41851E-04   104   0.145E-01
 213 F= -.88055100E+02 E0= -.87978005E+02  d E =-.640347E-01
       N       E                     dE             d eps       ncg     rms          rms(c)
DAV:   1    -0.880820899041E+02   -0.27062E-01   -0.64289E-01   112   0.663E+00    0.313E-01
DAV:   2    -0.881570491016E+02   -0.74959E-01   -0.57996E-01   120   0.155E+00    0.304E+00
DAV:   3    -0.880784963759E+02    0.78553E-01   -0.39348E-01   112   0.589E-01    0.249E-01
DAV:   4    -0.880848988749E+02   -0.64025E-02   -0.72618E-03   144   0.436E-01    0.171E-01
DAV:   5    -0.880849854772E+02   -0.86602E-04   -0.22679E-03   136   0.284E-01    0.725E-02
DAV:   6    -0.880851691600E+02   -0.18368E-03   -0.31569E-04    88   0.111E-01    0.304E-02
DAV:   7    -0.880852141833E+02   -0.45023E-04   -0.73472E-05    72   0.515E-02
 214 F= -.88085214E+02 E0= -.88008029E+02  d E =-.301140E-01
       N       E                     dE             d eps       ncg     rms          rms(c)
DAV:   1    -0.880957301980E+02   -0.10561E-01   -0.55645E+00   112   0.195E+01    0.924E-01
DAV:   2    -0.885200426709E+02   -0.42431E+00   -0.41017E+00   128   0.460E+00    0.446E+00
DAV:   3    -0.881145883580E+02    0.40545E+00   -0.64923E-01   112   0.208E+00    0.603E-01
DAV:   4    -0.881232432383E+02   -0.86549E-02   -0.45067E-02   160   0.961E-01    0.450E-01
DAV:   5    -0.881233670337E+02   -0.12380E-03   -0.17446E-02   136   0.758E-01    0.435E-01
DAV:   6    -0.881240423338E+02   -0.67530E-03   -0.26934E-03   120   0.275E-01    0.531E-01
DAV:   7    -0.881225245853E+02    0.15177E-02   -0.13211E-03   128   0.185E-01    0.231E-01
DAV:   8    -0.881226098178E+02   -0.85232E-04   -0.47807E-04   104   0.128E-01
 215 F= -.88122610E+02 E0= -.88046834E+02  d E =-.675096E-01
       N       E                     dE             d eps       ncg     rms          rms(c)
DAV:   1    -0.881463002864E+02   -0.23776E-01   -0.10848E+00   104   0.782E+00    0.405E-01
DAV:   2    -0.882364493620E+02   -0.90149E-01   -0.73019E-01   136   0.201E+00    0.327E+00
DAV:   3    -0.881448623521E+02    0.91587E-01   -0.48182E-01   128   0.707E-01    0.434E-01
DAV:   4    -0.881498832651E+02   -0.50209E-02   -0.14577E-02   144   0.578E-01    0.215E-01
DAV:   5    -0.881496826130E+02    0.20065E-03   -0.45137E-03   136   0.362E-01    0.945E-02
DAV:   6    -0.881498609890E+02   -0.17838E-03   -0.10808E-03   136   0.201E-01    0.597E-02
DAV:   7    -0.881498596846E+02    0.13044E-05   -0.40983E-04   104   0.116E-01
 216 F= -.88149860E+02 E0= -.88072918E+02  d E =-.272499E-01
       N       E                     dE             d eps       ncg     rms          rms(c)
DAV:   1    -0.881544198239E+02   -0.45588E-02   -0.64303E-01   104   0.602E+00    0.346E-01
DAV:   2    -0.882362314316E+02   -0.81812E-01   -0.63998E-01   136   0.163E+00    0.319E+00
DAV:   3    -0.881506082466E+02    0.85623E-01   -0.43704E-01   120   0.624E-01    0.345E-01
DAV:   4    -0.881561150788E+02   -0.55068E-02   -0.99861E-03   144   0.481E-01    0.168E-01
DAV:   5    -0.881561924112E+02   -0.77332E-04   -0.27522E-03   136   0.284E-01    0.744E-02
DAV:   6    -0.881563405113E+02   -0.14810E-03   -0.65708E-04   128   0.159E-01    0.485E-02
DAV:   7    -0.881563420150E+02   -0.15037E-05   -0.25933E-04    96   0.960E-02
 217 F= -.88156342E+02 E0= -.88079437E+02  d E =-.337322E-01
       N       E                     dE             d eps       ncg     rms          rms(c)
DAV:   1    -0.881665607779E+02   -0.10220E-01   -0.61657E-01   112   0.716E+00    0.275E-01
DAV:   2    -0.882097574758E+02   -0.43197E-01   -0.22930E-01   104   0.151E+00    0.234E+00
DAV:   3    -0.881683441083E+02    0.41413E-01   -0.13721E-01   128   0.528E-01    0.215E-01
DAV:   4    -0.881725461028E+02   -0.42020E-02   -0.42167E-03   136   0.396E-01    0.163E-01
DAV:   5    -0.881724085611E+02    0.13754E-03   -0.22220E-03   136   0.289E-01    0.776E-02
DAV:   6    -0.881725323387E+02   -0.12378E-03   -0.56137E-04   112   0.133E-01    0.440E-02
DAV:   7    -0.881725487849E+02   -0.16446E-04   -0.22727E-04    96   0.864E-02
 218 F= -.88172549E+02 E0= -.88095774E+02  d E =-.162068E-01
       N       E                     dE             d eps       ncg     rms          rms(c)
DAV:   1    -0.881633403484E+02    0.91920E-02   -0.21754E+00   112   0.134E+01    0.514E-01
DAV:   2    -0.883021109407E+02   -0.13877E+00   -0.12412E+00   104   0.283E+00    0.355E+00
DAV:   3    -0.881775076974E+02    0.12460E+00   -0.60195E-01   120   0.877E-01    0.370E-01
DAV:   4    -0.881849773659E+02   -0.74697E-02   -0.13977E-02   152   0.651E-01    0.318E-01
DAV:   5    -0.881839360729E+02    0.10413E-02   -0.71355E-03   136   0.521E-01    0.147E-01
DAV:   6    -0.881842567925E+02   -0.32072E-03   -0.20816E-03   136   0.250E-01    0.962E-02
DAV:   7    -0.881842595363E+02   -0.27438E-05   -0.83972E-04   128   0.153E-01
 219 F= -.88184260E+02 E0= -.88107884E+02  d E =-.279175E-01
       N       E                     dE             d eps       ncg     rms          rms(c)
DAV:   1    -0.881920691783E+02   -0.78124E-02   -0.69076E-01   112   0.736E+00    0.297E-01
DAV:   2    -0.882491582858E+02   -0.57089E-01   -0.37785E-01   120   0.165E+00    0.269E+00
DAV:   3    -0.881937597773E+02    0.55399E-01   -0.25348E-01   112   0.564E-01    0.268E-01
DAV:   4    -0.881985682828E+02   -0.48085E-02   -0.69473E-03   144   0.400E-01    0.170E-01
DAV:   5    -0.881984539237E+02    0.11436E-03   -0.21417E-03   136   0.286E-01    0.699E-02
DAV:   6    -0.881986150050E+02   -0.16108E-03   -0.79076E-04   136   0.176E-01    0.670E-02
DAV:   7    -0.881985809469E+02    0.34058E-04   -0.36778E-04   104   0.117E-01
 220 F= -.88198581E+02 E0= -.88121951E+02  d E =-.143214E-01
       N       E                     dE             d eps       ncg     rms          rms(c)
DAV:   1    -0.881942505687E+02    0.43644E-02   -0.11587E+00   112   0.953E+00    0.398E-01
DAV:   2    -0.882989955356E+02   -0.10474E+00   -0.86539E-01   120   0.217E+00    0.339E+00
DAV:   3    -0.881984124299E+02    0.10058E+00   -0.51368E-01   112   0.766E-01    0.335E-01
DAV:   4    -0.882050661912E+02   -0.66538E-02   -0.11680E-02   144   0.487E-01    0.222E-01
DAV:   5    -0.882047633420E+02    0.30285E-03   -0.34495E-03   136   0.367E-01    0.934E-02
DAV:   6    -0.882050155060E+02   -0.25216E-03   -0.14500E-03   136   0.234E-01    0.915E-02
DAV:   7    -0.882049465354E+02    0.68971E-04   -0.65846E-04   128   0.153E-01
 221 F= -.88204947E+02 E0= -.88128469E+02  d E =-.206870E-01
       N       E                     dE             d eps       ncg     rms          rms(c)
DAV:   1    -0.882124365700E+02   -0.74211E-02   -0.43307E-01   104   0.486E+00    0.228E-01
DAV:   2    -0.882371763622E+02   -0.24740E-01   -0.39428E-02   120   0.103E+00    0.187E+00
DAV:   3    -0.882113772282E+02    0.25799E-01   -0.54144E-03   120   0.368E-01    0.188E-01
DAV:   4    -0.882145338791E+02   -0.31567E-02   -0.26628E-03   144   0.243E-01    0.122E-01
DAV:   5    -0.882145112231E+02    0.22656E-04   -0.14713E-03   136   0.228E-01    0.693E-02
DAV:   6    -0.882145756675E+02   -0.64444E-04   -0.86393E-04   120   0.187E-01
 222 F= -.88214576E+02 E0= -.88137908E+02  d E =-.962913E-02
       N       E                     dE             d eps       ncg     rms          rms(c)
DAV:   1    -0.882153240137E+02   -0.81279E-03   -0.16838E-01   104   0.304E+00    0.158E-01
DAV:   2    -0.882302659481E+02   -0.14942E-01   -0.16197E-02   112   0.664E-01    0.149E+00
DAV:   3    -0.882136830665E+02    0.16583E-01   -0.28613E-03   112   0.280E-01    0.121E-01
DAV:   4    -0.882160896469E+02   -0.24066E-02   -0.13205E-03   136   0.183E-01    0.956E-02
DAV:   5    -0.882160932167E+02   -0.35698E-05   -0.71621E-04   112   0.176E-01
 223 F= -.88216093E+02 E0= -.88139361E+02  d E =-.111467E-01
       N       E                     dE             d eps       ncg     rms          rms(c)
DAV:   1    -0.882196923443E+02   -0.36027E-02   -0.48478E-01   112   0.584E+00    0.206E-01
DAV:   2    -0.882258021035E+02   -0.61098E-02   -0.48432E-02    96   0.116E+00    0.627E-01
DAV:   3    -0.882231861714E+02    0.26159E-02   -0.33184E-03   136   0.292E-01    0.325E-01
DAV:   4    -0.882231729835E+02    0.13188E-04   -0.18176E-03   144   0.255E-01    0.134E-01
DAV:   5    -0.882231149356E+02    0.58048E-04   -0.17114E-03   128   0.263E-01    0.706E-02
DAV:   6    -0.882231431305E+02   -0.28195E-04   -0.40098E-04    88   0.122E-01
 224 F= -.88223143E+02 E0= -.88146343E+02  d E =-.704991E-02
       N       E                     dE             d eps       ncg     rms          rms(c)
DAV:   1    -0.882232462030E+02   -0.13127E-03   -0.56673E-02   112   0.200E+00    0.787E-02
DAV:   2    -0.882246023999E+02   -0.13562E-02   -0.57611E-03   104   0.418E-01    0.377E-01
DAV:   3    -0.882233729264E+02    0.12295E-02   -0.48996E-04   104   0.125E-01    0.971E-02
DAV:   4    -0.882236444621E+02   -0.27154E-03   -0.33963E-04    96   0.115E-01    0.480E-02
DAV:   5    -0.882236412416E+02    0.32206E-05   -0.19200E-04    88   0.106E-01
 225 F= -.88223641E+02 E0= -.88146707E+02  d E =-.754802E-02
       N       E                     dE             d eps       ncg     rms          rms(c)
DAV:   1    -0.882236086924E+02    0.35770E-04   -0.45563E-01   120   0.657E+00    0.206E-01
DAV:   2    -0.882436413215E+02   -0.20033E-01   -0.63387E-02    96   0.128E+00    0.151E+00
DAV:   3    -0.882261334244E+02    0.17508E-01   -0.43331E-03   136   0.310E-01    0.205E-01
DAV:   4    -0.882287532596E+02   -0.26198E-02   -0.24376E-03   144   0.316E-01    0.128E-01
DAV:   5    -0.882286985479E+02    0.54712E-04   -0.11110E-03   120   0.215E-01    0.640E-02
DAV:   6    -0.882288241933E+02   -0.12565E-03   -0.47166E-04   120   0.143E-01    0.516E-02
DAV:   7    -0.882288199096E+02    0.42837E-05   -0.22938E-04    96   0.970E-02
 226 F= -.88228820E+02 E0= -.88151985E+02  d E =-.517867E-02
       N       E                     dE             d eps       ncg     rms          rms(c)
DAV:   1    -0.882281467861E+02    0.67741E-03   -0.11442E-01   120   0.330E+00    0.104E-01
DAV:   2    -0.882335099347E+02   -0.53631E-02   -0.15973E-02   112   0.642E-01    0.793E-01
DAV:   3    -0.882284067088E+02    0.51032E-02   -0.10865E-03   120   0.166E-01    0.919E-02
DAV:   4    -0.882294118744E+02   -0.10052E-02   -0.44712E-04   104   0.153E-01    0.588E-02
DAV:   5    -0.882294283701E+02   -0.16496E-04   -0.21987E-04    88   0.114E-01
 227 F= -.88229428E+02 E0= -.88152426E+02  d E =-.578713E-02
       N       E                     dE             d eps       ncg     rms          rms(c)
DAV:   1    -0.882298789017E+02   -0.46703E-03   -0.15079E-01   112   0.329E+00    0.140E-01
DAV:   2    -0.882396441109E+02   -0.97652E-02   -0.17142E-02   112   0.670E-01    0.106E+00
DAV:   3    -0.882296125312E+02    0.10032E-01   -0.19731E-03   136   0.230E-01    0.107E-01
DAV:   4    -0.882309994915E+02   -0.13870E-02   -0.60427E-04   112   0.160E-01    0.634E-02
DAV:   5    -0.882310415679E+02   -0.42076E-04   -0.40091E-04    96   0.139E-01
 228 F= -.88231042E+02 E0= -.88154372E+02  d E =-.161320E-02
       N       E                     dE             d eps       ncg     rms          rms(c)
DAV:   1    -0.882310438894E+02   -0.44398E-04   -0.94653E-04   120   0.273E-01    0.274E-02
DAV:   2    -0.882312774152E+02   -0.23353E-03   -0.31355E-04   104   0.108E-01    0.178E-01
DAV:   3    -0.882309841602E+02    0.29325E-03   -0.67326E-05    80   0.445E-02    0.582E-02
DAV:   4    -0.882310444898E+02   -0.60330E-04   -0.55926E-05    72   0.598E-02
 229 F= -.88231044E+02 E0= -.88154199E+02  d E =-.161612E-02
       N       E                     dE             d eps       ncg     rms          rms(c)
DAV:   1    -0.882319278240E+02   -0.94366E-03   -0.10170E-01   104   0.254E+00    0.877E-02
DAV:   2    -0.882326568413E+02   -0.72902E-03   -0.90792E-03   112   0.501E-01    0.114E-01
DAV:   3    -0.882331033099E+02   -0.44647E-03   -0.60284E-04   128   0.131E-01    0.287E-01
DAV:   4    -0.882324199312E+02    0.68338E-03   -0.22018E-04   104   0.786E-02    0.507E-02
DAV:   5    -0.882326051520E+02   -0.18522E-03   -0.21268E-04    88   0.112E-01    0.350E-02
DAV:   6    -0.882326117300E+02   -0.65780E-05   -0.10725E-04    88   0.705E-02
 230 F= -.88232612E+02 E0= -.88155866E+02  d E =-.156724E-02
       N       E                     dE             d eps       ncg     rms          rms(c)
DAV:   1    -0.882323983403E+02    0.20681E-03   -0.10614E-01   104   0.260E+00    0.905E-02
DAV:   2    -0.882331825728E+02   -0.78423E-03   -0.94260E-03   112   0.512E-01    0.132E-01
DAV:   3    -0.882335232270E+02   -0.34065E-03   -0.57528E-04   112   0.116E-01    0.271E-01
DAV:   4    -0.882329253743E+02    0.59785E-03   -0.27714E-04    96   0.852E-02    0.401E-02
DAV:   5    -0.882330978287E+02   -0.17245E-03   -0.13879E-04    88   0.869E-02    0.272E-02
DAV:   6    -0.882331100511E+02   -0.12222E-04   -0.67923E-05    72   0.727E-02
 231 F= -.88233110E+02 E0= -.88156370E+02  d E =-.206556E-02
       N       E                     dE             d eps       ncg     rms          rms(c)
DAV:   1    -0.882341801500E+02   -0.10823E-02   -0.12747E-01   112   0.243E+00    0.139E-01
DAV:   2    -0.882445040834E+02   -0.10324E-01   -0.10783E-02   144   0.624E-01    0.115E+00
DAV:   3    -0.882329879647E+02    0.11516E-01   -0.25707E-03   136   0.275E-01    0.144E-01
DAV:   4    -0.882344183689E+02   -0.14304E-02   -0.12103E-03   128   0.204E-01    0.645E-02
DAV:   5    -0.882344771755E+02   -0.58807E-04   -0.44867E-04    96   0.137E-01
 232 F= -.88234477E+02 E0= -.88157421E+02  d E =-.136712E-02
       N       E                     dE             d eps       ncg     rms          rms(c)
DAV:   1    -0.882344858704E+02   -0.67501E-04   -0.22891E-02   112   0.104E+00    0.625E-02
DAV:   2    -0.882362354530E+02   -0.17496E-02   -0.18688E-03   136   0.273E-01    0.494E-01
DAV:   3    -0.882340869550E+02    0.21485E-02   -0.43040E-04   112   0.120E-01    0.657E-02
DAV:   4    -0.882345376326E+02   -0.45068E-03   -0.26393E-04    96   0.995E-02    0.324E-02
DAV:   5    -0.882345468585E+02   -0.92258E-05   -0.84120E-05    72   0.669E-02
 233 F= -.88234547E+02 E0= -.88157627E+02  d E =-.143681E-02
       N       E                     dE             d eps       ncg     rms          rms(c)
DAV:   1    -0.882353514877E+02   -0.81386E-03   -0.61510E-02   112   0.183E+00    0.777E-02
DAV:   2    -0.882371922892E+02   -0.18408E-02   -0.52377E-03   128   0.443E-01    0.478E-01
DAV:   3    -0.882352947545E+02    0.18975E-02   -0.71302E-04   120   0.157E-01    0.123E-01
DAV:   4    -0.882355927450E+02   -0.29799E-03   -0.49499E-04   104   0.131E-01    0.394E-02
DAV:   5    -0.882356055413E+02   -0.12796E-04   -0.14876E-04    88   0.802E-02
 234 F= -.88235606E+02 E0= -.88158671E+02  d E =-.105868E-02
       N       E                     dE             d eps       ncg     rms          rms(c)
DAV:   1    -0.882348394372E+02    0.75331E-03   -0.44324E-01    96   0.490E+00    0.206E-01
DAV:   2    -0.882475327652E+02   -0.12693E-01   -0.37051E-02   128   0.118E+00    0.121E+00
DAV:   3    -0.882358887498E+02    0.11644E-01   -0.52055E-03   128   0.410E-01    0.321E-01
DAV:   4    -0.882366248147E+02   -0.73606E-03   -0.32332E-03   136   0.329E-01    0.112E-01
DAV:   5    -0.882366584920E+02   -0.33677E-04   -0.11284E-03   128   0.200E-01    0.769E-02
DAV:   6    -0.882366389904E+02    0.19502E-04   -0.62768E-04   104   0.134E-01
 235 F= -.88236639E+02 E0= -.88159845E+02  d E =-.209213E-02
       N       E                     dE             d eps       ncg     rms          rms(c)
DAV:   1    -0.882369778419E+02   -0.31935E-03   -0.77643E-02   120   0.236E+00    0.773E-02
DAV:   2    -0.882377086702E+02   -0.73083E-03   -0.75419E-03   112   0.463E-01    0.143E-01
DAV:   3    -0.882377813780E+02   -0.72708E-04   -0.41992E-04   120   0.958E-02
 236 F= -.88237781E+02 E0= -.88163552E+02  d E =-.114239E-02
       N       E                     dE             d eps       ncg     rms          rms(c)
DAV:   1    -0.882353902140E+02    0.23185E-02   -0.33604E-01   112   0.490E+00    0.179E-01
DAV:   2    -0.882385551481E+02   -0.31649E-02   -0.33945E-02   112   0.104E+00    0.281E-01
DAV:   3    -0.882396705076E+02   -0.11154E-02   -0.21858E-03   128   0.264E-01    0.543E-01
DAV:   4    -0.882374690001E+02    0.22015E-02   -0.20130E-03   136   0.261E-01    0.136E-01
DAV:   5    -0.882378621065E+02   -0.39311E-03   -0.11108E-03   120   0.225E-01    0.543E-02
DAV:   6    -0.882379187390E+02   -0.56632E-04   -0.41696E-04    96   0.112E-01
 237 F= -.88237919E+02 E0= -.88161135E+02  d E =-.127975E-02
       N       E                     dE             d eps       ncg     rms          rms(c)
DAV:   1    -0.882390066939E+02   -0.11446E-02   -0.91283E-02    96   0.154E+00    0.104E-01
DAV:   2    -0.882393834465E+02   -0.37675E-03   -0.39188E-03   112   0.288E-01    0.256E-01
DAV:   3    -0.882389457898E+02    0.43766E-03   -0.39852E-04   104   0.795E-02    0.168E-01
DAV:   4    -0.882389251531E+02    0.20637E-04   -0.87709E-04   120   0.164E-01
 238 F= -.88238925E+02 E0= -.88162292E+02  d E =-.100641E-02
       N       E                     dE             d eps       ncg     rms          rms(c)
DAV:   1    -0.882389852186E+02   -0.39429E-04   -0.45690E-03   120   0.365E-01    0.334E-02
DAV:   2    -0.882391100745E+02   -0.12486E-03   -0.55893E-04   112   0.158E-01    0.108E-01
DAV:   3    -0.882390689081E+02    0.41166E-04   -0.77718E-05    80   0.554E-02
 239 F= -.88239069E+02 E0= -.88160712E+02  d E =-.115017E-02
