unknown system                          
           1
    20.738775    0.000000    0.000000
     0.000000   20.180822    0.000000
     0.000000    0.000000   18.777092
   Ti   Al   B 
     2     4    12
Direct configuration=     1
   0.42371802  0.49572470  0.41532399
   0.38726520  0.42700992  0.33851590
   0.58176061  0.47574176  0.45615454
   0.62527810  0.29694351  0.40645682
   0.50424394  0.39897456  0.45451700
   0.59331270  0.37219357  0.59979439
   0.45705335  0.55502981  0.67976660
   0.48485996  0.52275620  0.50753754
   0.44515943  0.35370171  0.43392677
   0.40666462  0.42886693  0.52919958
   0.48450586  0.47223130  0.48619740
   0.49968543  0.51906764  0.57780550
   0.59129415  0.63897164  0.42673182
   0.40392704  0.56659756  0.51662792
   0.48285128  0.54674665  0.35419948
   0.47613016  0.61741984  0.54628014
   0.46481582  0.50182806  0.62225454
   0.49483456  0.57975701  0.56318407
Direct configuration=     2
   0.41577071  0.49820761  0.41702209
   0.38916615  0.42295509  0.33925594
   0.58734533  0.48177584  0.45514134
   0.62389655  0.29854983  0.40738284
   0.53134305  0.38900580  0.45329237
   0.59230855  0.37367765  0.59743735
   0.45662069  0.55857133  0.68380669
   0.48003616  0.61167231  0.52012321
   0.41649408  0.33870329  0.42367477
   0.40833807  0.42896697  0.52645279
   0.48728412  0.40723577  0.46869825
   0.54864483  0.49361087  0.55907499
   0.58934913  0.63645225  0.42690515
   0.40991277  0.57182403  0.51832852
   0.48656957  0.54757790  0.35220027
   0.38302633  0.79084493  0.46301133
   0.42457096  0.47810909  0.67018613
   0.57668318  0.44182181  0.63247996
Direct configuration=     3
   0.41625818  0.49805532  0.41691794
   0.38904955  0.42320380  0.33921055
   0.58700278  0.48140573  0.45520349
   0.62398129  0.29845131  0.40732604
   0.52968086  0.38961726  0.45336749
   0.59237015  0.37358662  0.59758192
   0.45664723  0.55835410  0.68355888
   0.48033204  0.60621840  0.51935123
   0.41825234  0.33962325  0.42430360
   0.40823543  0.42896084  0.52662127
   0.48711371  0.41122244  0.46977161
   0.54564177  0.49517233  0.56022388
   0.58946843  0.63660679  0.42689452
   0.40954562  0.57150345  0.51822421
   0.48634150  0.54752691  0.35232290
   0.38873710  0.78020744  0.46811884
   0.42703948  0.47956396  0.66724612
   0.57166278  0.45028243  0.62822951
Direct configuration=     4
   0.41256165  0.49901979  0.42232821
   0.39156321  0.41952241  0.34020895
   0.59121234  0.49148719  0.45405212
   0.62290097  0.30016607  0.40901010
   0.65847142  0.31794358  0.40718895
   0.59487706  0.36274899  0.59011501
   0.45649687  0.55950307  0.68424859
   0.47904504  0.65816975  0.52601306
   0.40303847  0.33542432  0.41965327
   0.41200347  0.43003785  0.52318990
   0.36789447  0.43322273  0.50365535
   0.57538937  0.47875705  0.55152517
   0.58587340  0.63292139  0.42775585
   0.41391650  0.57272090  0.51924780
   0.48958449  0.54752213  0.35226034
   0.33288048  0.88398199  0.41812173
   0.40435416  0.46542722  0.69274112
   0.61529684  0.38098594  0.67315846
Direct configuration=     5
   0.40147208  0.50191322  0.43855902
   0.39910421  0.40847822  0.34320416
   0.60384104  0.52173157  0.45059802
   0.61966002  0.30531036  0.41406229
   0.04484312  0.10292254  0.26865334
   0.60239779  0.33023612  0.56771426
   0.45604581  0.56294997  0.68631772
   0.47518403  0.81402380  0.54599855
   0.35739686  0.32282753  0.40570229
   0.42330761  0.43326888  0.51289578
   0.01023675  0.49922359  0.60530657
   0.66463216  0.42951120  0.52542907
   0.57508832  0.62186521  0.43033985
   0.42702914  0.57637325  0.52231857
   0.49931347  0.54750779  0.35207269
   0.16531059  0.19530562  0.26813037
   0.33629817  0.42301701  0.76922613
   0.74619904  0.17309647  0.80794532
Direct configuration=     6
   0.40149926  0.50190613  0.43851923
   0.39908573  0.40850530  0.34319682
   0.60381009  0.52165743  0.45060648
   0.61966797  0.30529775  0.41404990
   0.04389600  0.10344963  0.26899293
   0.60237935  0.33031582  0.56776918
   0.45604692  0.56294152  0.68631265
   0.47519350  0.81364175  0.54594956
   0.35750875  0.32285841  0.40573648
   0.42327990  0.43326096  0.51292101
   0.01111348  0.49906180  0.60505739
   0.66441339  0.42963192  0.52549304
   0.57511476  0.62189231  0.43033351
   0.42699699  0.57636429  0.52231105
   0.49928963  0.54750783  0.35207315
   0.16572136  0.19454247  0.26849805
   0.33646500  0.42312097  0.76903864
   0.74587816  0.17360608  0.80761492
Direct configuration=     7
   0.40703046  0.50046296  0.43042372
   0.39532447  0.41401385  0.34170289
   0.59751121  0.50657231  0.45232930
   0.62128447  0.30273191  0.41153000
  -0.14881629  0.21069661  0.33809094
   0.59862820  0.34653241  0.57894209
   0.45627190  0.56122230  0.68528062
   0.47711927  0.73590575  0.53598131
   0.38027361  0.32914136  0.41269488
   0.41764169  0.43164940  0.51805545
   0.18950397  0.46614226  0.55435637
   0.61990138  0.45419448  0.53850910
   0.58049408  0.62740685  0.42904468
   0.42045675  0.57454260  0.52077942
   0.49443706  0.54751498  0.35216675
   0.24930092  0.03926223  0.34330989
   0.37040958  0.44427410  0.73088988
   0.68058750  0.27729601  0.74038669
Direct configuration=     8
   0.40979605  0.49974138  0.42637596
   0.39344384  0.41676813  0.34095592
   0.59436178  0.49902975  0.45319071
   0.62209272  0.30144899  0.41027005
  -0.24517243  0.26432009  0.37263994
   0.59675263  0.35464070  0.58452855
   0.45638438  0.56036268  0.68476460
   0.47808216  0.69703775  0.53099719
   0.39165604  0.33228284  0.41617407
   0.41482258  0.43084363  0.52062267
   0.27869922  0.44968250  0.52900586
   0.59764537  0.46647576  0.54501714
   0.58318374  0.63016412  0.42840027
   0.41718662  0.57363175  0.52001361
   0.49201078  0.54751856  0.35221355
   0.29109070 -0.03837789  0.38071581
   0.38738187  0.45485066  0.71181550
   0.64794217  0.32914097  0.70677258
Direct configuration=     9
   0.41117885  0.49938058  0.42435208
   0.39250353  0.41814527  0.34058244
   0.59278706  0.49525847  0.45362142
   0.62249685  0.30080753  0.40964008
  -0.29335050  0.29113184  0.38991445
   0.59581484  0.35869485  0.58732178
   0.45644063  0.55993287  0.68450660
   0.47856360  0.67760375  0.52850512
   0.39734726  0.33385358  0.41791367
   0.41341303  0.43044074  0.52190629
   0.32329685  0.44145261  0.51633061
   0.58651737  0.47261641  0.54827116
   0.58452857  0.63154276  0.42807806
   0.41555156  0.57317632  0.51963070
   0.49079763  0.54752035  0.35223695
   0.31198559 -0.07719795  0.39941877
   0.39586801  0.46013894  0.70227831
   0.63161951  0.35506346  0.68996552
Direct configuration=    10
   0.41009174  0.49966423  0.42594319
   0.39324277  0.41706260  0.34087606
   0.59402505  0.49822333  0.45328281
   0.62217914  0.30131183  0.41013534
  -0.25547441  0.27005329  0.37633377
   0.59655210  0.35550760  0.58512583
   0.45639641  0.56027078  0.68470943
   0.47818510  0.69288215  0.53046431
   0.39287300  0.33261872  0.41654606
   0.41452117  0.43075748  0.52089715
   0.28823559  0.44792269  0.52629550
   0.59526586  0.46778883  0.54571295
   0.58347131  0.63045892  0.42833137
   0.41683700  0.57353436  0.51993173
   0.49175137  0.54751894  0.35221855
   0.29555868 -0.04667884  0.38471509
   0.38919647  0.45598146  0.70977615
   0.64445188  0.33468401  0.70317870
Direct configuration=    11
   0.41063530  0.49952241  0.42514764
   0.39287315  0.41760394  0.34072925
   0.59340606  0.49674090  0.45345211
   0.62233799  0.30105968  0.40988771
  -0.27441246  0.28059256  0.38312411
   0.59618347  0.35710122  0.58622380
   0.45641852  0.56010182  0.68460801
   0.47837435  0.68524295  0.52948471
   0.39511013  0.33323615  0.41722986
   0.41396710  0.43059911  0.52140172
   0.30576622  0.44468765  0.52131305
   0.59089162  0.47020262  0.54699205
   0.58399994  0.63100084  0.42820471
   0.41619428  0.57335534  0.51978122
   0.49127450  0.54751964  0.35222775
   0.30377213 -0.06193840  0.39206693
   0.39253224  0.45806020  0.70602723
   0.63803569  0.34487373  0.69657211
Direct configuration=    12
   0.41146058  0.50032161  0.42927511
   0.39378496  0.41697249  0.34090865
   0.59148051  0.50094167  0.44410911
   0.61604698  0.30340344  0.41285209
  -0.26826893  0.27937781  0.38178263
   0.59640155  0.35991902  0.58438888
   0.45483702  0.55790267  0.68330798
   0.47759842  0.68214288  0.52889943
   0.39556050  0.33672633  0.41824306
   0.41036393  0.43135080  0.51917148
   0.31018805  0.44489149  0.52051556
   0.59078766  0.46424443  0.55558802
   0.58187663  0.62816943  0.42825401
   0.41806645  0.57345640  0.51943562
   0.49184045  0.54623351  0.35515702
   0.30348152 -0.06139490  0.39181384
   0.39391693  0.46025210  0.70482110
   0.63793701  0.34465121  0.69595041
Direct configuration=    13
   0.41197691  0.50082162  0.43185739
   0.39435542  0.41657743  0.34102090
   0.59027582  0.50356981  0.43826382
   0.61211112  0.30486977  0.41470670
  -0.26442533  0.27861782  0.38094336
   0.59653799  0.36168192  0.58324089
   0.45384757  0.55652681  0.68249463
   0.47711297  0.68020337  0.52853325
   0.39584227  0.33890990  0.41887695
   0.40810967  0.43182108  0.51777616
   0.31295450  0.44501901  0.52001662
   0.59072262  0.46051680  0.56096594
   0.58054822  0.62639800  0.42828486
   0.41923774  0.57351962  0.51921940
   0.49219452  0.54542886  0.35698967
   0.30329970 -0.06105487  0.39165550
   0.39478324  0.46162342  0.70406650
   0.63787527  0.34451200  0.69556145
Direct configuration=    14
   0.41300957  0.50182165  0.43702195
   0.39549633  0.41578732  0.34124538
   0.58786645  0.50882608  0.42657324
   0.60423939  0.30780244  0.41841593
  -0.25673814  0.27709785  0.37926481
   0.59681087  0.36520773  0.58094491
   0.45186869  0.55377509  0.68086793
   0.47614207  0.67632435  0.52780090
   0.39640581  0.34327703  0.42014473
   0.40360115  0.43276164  0.51498554
   0.31848739  0.44527406  0.51901875
   0.59059254  0.45306153  0.57172178
   0.57789140  0.62285515  0.42834655
   0.42158033  0.57364606  0.51878697
   0.49290266  0.54381957  0.36065497
   0.30293607 -0.06037480  0.39133882
   0.39651586  0.46436607  0.70255732
   0.63775180  0.34423357  0.69478353
Direct configuration=    15
   0.41386121  0.50313748  0.43854507
   0.39692675  0.41577648  0.34190127
   0.58472088  0.51248098  0.42101218
   0.59985277  0.31040868  0.42162611
  -0.25313416  0.27646196  0.37861402
   0.59788534  0.35957275  0.58047973
   0.44943631  0.55007712  0.67873697
   0.47475990  0.67094296  0.52658480
   0.39741691  0.34871856  0.42244204
   0.39789846  0.43126605  0.51366626
   0.32544785  0.44544267  0.51735693
   0.58984205  0.45627336  0.57529131
   0.57477805  0.61898354  0.42834136
   0.42481704  0.57562009  0.52007583
   0.49401117  0.54182686  0.36502826
   0.30273083 -0.05999587  0.39116496
   0.39889842  0.46804081  0.70068871
   0.63721045  0.34452790  0.69291820
Direct configuration=    16
   0.41442315  0.50400571  0.43955007
   0.39787058  0.41576934  0.34233405
   0.58264534  0.51489260  0.41734281
   0.59695834  0.31212836  0.42374428
  -0.25075615  0.27604238  0.37818461
   0.59859432  0.35585461  0.58017279
   0.44783135  0.54763708  0.67733090
   0.47384789  0.66739215  0.52578238
   0.39808407  0.35230906  0.42395787
   0.39413565  0.43027922  0.51279576
   0.33004058  0.44555392  0.51626041
   0.58934685  0.45839262  0.57764660
   0.57272377  0.61642893  0.42833793
   0.42695272  0.57692262  0.52092625
   0.49474259  0.54051200  0.36791389
   0.30259541 -0.05974584  0.39105025
   0.40047051  0.47046552  0.69945574
   0.63685326  0.34472212  0.69168739
Direct configuration=    17
   0.41486073  0.50496964  0.44033386
   0.39897367  0.41619346  0.34259642
   0.58068449  0.51655022  0.41456749
   0.59451890  0.31395988  0.42603839
  -0.24901240  0.27576490  0.37794014
   0.59931067  0.35226945  0.57968433
   0.44599515  0.54469477  0.67550012
   0.47267672  0.66277350  0.52469843
   0.39892623  0.35667967  0.42651937
   0.39493131  0.42696474  0.51147149
   0.33031049  0.44698583  0.51501076
   0.58877579  0.46050165  0.57944741
   0.57004442  0.61406212  0.42835158
   0.42964788  0.57903997  0.52231463
   0.49542414  0.53922716  0.37088641
   0.30247610 -0.05952817  0.39094973
   0.40239722  0.47343304  0.69794744
   0.63641871  0.34502053  0.69021598
Direct configuration=    18
   0.41578132  0.50699759  0.44198282
   0.40129438  0.41708575  0.34314839
   0.57655918  0.52003759  0.40872866
   0.58938674  0.31781308  0.43086481
  -0.24534385  0.27518115  0.37742582
   0.60081774  0.34472689  0.57865670
   0.44213210  0.53850467  0.67164848
   0.47021277  0.65305666  0.52241799
   0.40069799  0.36587469  0.43190834
   0.39660524  0.41999163  0.50868547
   0.33087835  0.44999833  0.51238170
   0.58757437  0.46493869  0.58323600
   0.56440753  0.60908275  0.42838030
   0.43531805  0.58349453  0.52523554
   0.49685801  0.53652406  0.37714008
   0.30222510 -0.05907024  0.39073826
   0.40645070  0.47967620  0.69477422
   0.63550450  0.34564834  0.68712038
Direct configuration=    19
   0.41550391  0.50638650  0.44148594
   0.40059507  0.41681687  0.34298207
   0.57780228  0.51898672  0.41048810
   0.59093324  0.31665198  0.42941044
  -0.24644931  0.27535705  0.37758081
   0.60036361  0.34699973  0.57896636
   0.44329617  0.54036996  0.67280911
   0.47095525  0.65598468  0.52310517
   0.40016410  0.36310391  0.43028446
   0.39610082  0.42209287  0.50952500
   0.33070723  0.44909056  0.51317393
   0.58793640  0.46360166  0.58209437
   0.56610612  0.61058321  0.42837165
   0.43360943  0.58215222  0.52435537
   0.49642594  0.53733860  0.37525563
   0.30230073 -0.05920823  0.39080198
   0.40522925  0.47779492  0.69573042
   0.63577999  0.34545916  0.68805320
Direct configuration=    20
   0.41544278  0.50690283  0.44245656
   0.40128449  0.41779985  0.34260065
   0.57952483  0.51697953  0.41061559
   0.59040130  0.31752776  0.43054402
  -0.24635359  0.27538271  0.37767318
   0.60046095  0.34649877  0.57829116
   0.44374792  0.54095160  0.67056463
   0.47088763  0.65342228  0.52204088
   0.40080310  0.36627316  0.43373143
   0.39851460  0.41787944  0.50747401
   0.32906385  0.45092192  0.51227375
   0.58759374  0.46362560  0.58259583
   0.56347563  0.61110816  0.42891552
   0.43480939  0.58296241  0.52551443
   0.49474604  0.53736607  0.37557738
   0.30226172 -0.05914298  0.39076740
   0.40509484  0.47743159  0.69545120
   0.63560100  0.34567168  0.68738636
Direct configuration=    21
   0.41534884  0.50769617  0.44394794
   0.40234380  0.41931022  0.34201461
   0.58217155  0.51389545  0.41081149
   0.58958398  0.31887340  0.43228576
  -0.24620651  0.27542214  0.37781513
   0.60061051  0.34572904  0.57725371
   0.44444203  0.54184531  0.66711596
   0.47078373  0.64948512  0.52040558
   0.40178495  0.37114276  0.43902775
   0.40222340  0.41140545  0.50432265
   0.32653878  0.45373582  0.51089063
   0.58706724  0.46366239  0.58336634
   0.55943384  0.61191476  0.42975118
   0.43665313  0.58420727  0.52729535
   0.49216486  0.53740828  0.37607174
   0.30220178 -0.05904273  0.39071426
   0.40488833  0.47687332  0.69502217
   0.63532598  0.34599822  0.68636176
Direct configuration=    22
   0.41537143  0.50750540  0.44358932
   0.40208908  0.41894703  0.34215553
   0.58153512  0.51463705  0.41076438
   0.58978051  0.31854982  0.43186694
  -0.24624187  0.27541266  0.37778099
   0.60057455  0.34591413  0.57750318
   0.44427512  0.54163041  0.66794523
   0.47080872  0.65043185  0.52079880
   0.40154885  0.36997181  0.43775420
   0.40133158  0.41296219  0.50508043
   0.32714596  0.45305918  0.51122321
   0.58719384  0.46365354  0.58318106
   0.56040573  0.61172081  0.42955023
   0.43620978  0.58390793  0.52686711
   0.49278553  0.53739813  0.37595286
   0.30221619 -0.05906684  0.39072704
   0.40493798  0.47700756  0.69512533
   0.63539211  0.34591970  0.68660813
Direct configuration=    23
   0.41503064  0.50765882  0.44504311
   0.40290540  0.42007094  0.34267611
   0.58296532  0.51293259  0.41159145
   0.58998184  0.31917134  0.43258901
  -0.24679368  0.27558043  0.37803777
   0.60045887  0.34666513  0.57677223
   0.44504871  0.54261312  0.66526343
   0.47264949  0.65022694  0.51888313
   0.40227787  0.37137081  0.43829714
   0.40035636  0.41203298  0.50505118
   0.32873938  0.45335656  0.51013959
   0.58688899  0.46274911  0.58320215
   0.55735307  0.61188763  0.43049921
   0.43577258  0.58216746  0.52860637
   0.49158159  0.53755903  0.37597773
   0.30220644 -0.05905491  0.39071903
   0.40465484  0.47641937  0.69497353
   0.63528251  0.34615502  0.68615183
Direct configuration=    24
   0.41400827  0.50811909  0.44940446
   0.40535436  0.42344268  0.34423785
   0.58725592  0.50781920  0.41407264
   0.59058582  0.32103589  0.43475520
  -0.24844911  0.27608372  0.37880810
   0.60011185  0.34891811  0.57457938
   0.44736949  0.54556127  0.65721804
   0.47817179  0.64961220  0.51313611
   0.40446495  0.37556780  0.43992596
   0.39743071  0.40924537  0.50496344
   0.33351963  0.45424867  0.50688870
   0.58597444  0.46003581  0.58326543
   0.54819506  0.61238810  0.43334616
   0.43446099  0.57694605  0.53382416
   0.48796977  0.53804174  0.37605234
   0.30217718 -0.05901910  0.39069499
   0.40380540  0.47465481  0.69451810
   0.63495371  0.34686097  0.68478294
Direct configuration=    25
   0.41196353  0.50903962  0.45812716
   0.41025227  0.43018614  0.34736132
   0.59583713  0.49759242  0.41903503
   0.59179378  0.32476500  0.43908760
  -0.25175996  0.27709031  0.38034877
   0.59941782  0.35342409  0.57019368
   0.45201103  0.55145756  0.64112725
   0.48921641  0.64838273  0.50164206
   0.40883909  0.38396178  0.44318361
   0.39157941  0.40367013  0.50478796
   0.34308014  0.45603290  0.50038693
   0.58414534  0.45460920  0.58339199
   0.52987905  0.61338903  0.43904004
   0.43183779  0.56650323  0.54425973
   0.48074611  0.53900716  0.37620156
   0.30211867 -0.05894750  0.39064691
   0.40210652  0.47112569  0.69360724
   0.63429611  0.34827288  0.68204516
Direct configuration=    26
   0.41288898  0.50862299  0.45417928
   0.40803549  0.42713406  0.34594764
   0.59195329  0.50222104  0.41678906
   0.59124706  0.32307722  0.43712676
  -0.25026148  0.27663473  0.37965147
   0.59973194  0.35138469  0.57217864
   0.44991028  0.54878891  0.64840991
   0.48421764  0.64893918  0.50684424
   0.40685936  0.38016268  0.44170921
   0.39422770  0.40619347  0.50486738
   0.33875307  0.45522536  0.50332962
   0.58497319  0.45706527  0.58333471
   0.53816884  0.61293601  0.43646300
   0.43302504  0.57122963  0.53953661
   0.48401552  0.53857021  0.37613403
   0.30214515 -0.05897991  0.39066867
   0.40287543  0.47272297  0.69401949
   0.63459374  0.34763385  0.68328427
Direct configuration=    27
   0.41279873  0.50868626  0.45464144
   0.40840122  0.42765333  0.34620296
   0.59241264  0.50161666  0.41715154
   0.59135380  0.32334735  0.43738350
  -0.25052131  0.27671473  0.37977141
   0.59969423  0.35169785  0.57191648
   0.45011375  0.54906959  0.64718758
   0.48491020  0.64857957  0.50598697
   0.40731538  0.38045031  0.44125888
   0.39373094  0.40601450  0.50553560
   0.33931586  0.45538854  0.50290338
   0.58483868  0.45669621  0.58332045
   0.53684996  0.61288200  0.43688788
   0.43300683  0.57073958  0.54047075
   0.48360692  0.53864256  0.37622916
   0.30214157 -0.05897593  0.39066571
   0.40285052  0.47261846  0.69388926
   0.63454033  0.34774080  0.68307102
Direct configuration=    28
   0.41252798  0.50887609  0.45602791
   0.40949844  0.42921112  0.34696892
   0.59379068  0.49980352  0.41823897
   0.59167403  0.32415777  0.43815369
  -0.25130080  0.27695473  0.38013126
   0.59958109  0.35263733  0.57113001
   0.45072416  0.54991163  0.64352062
   0.48698787  0.64750072  0.50341515
   0.40868342  0.38131319  0.43990791
   0.39224065  0.40547759  0.50754027
   0.34100425  0.45587806  0.50162467
   0.58443514  0.45558900  0.58327769
   0.53289333  0.61271997  0.43816251
   0.43295217  0.56926944  0.54327317
   0.48238110  0.53885962  0.37651455
   0.30213084 -0.05896399  0.39065685
   0.40277579  0.47230493  0.69349858
   0.63438009  0.34806166  0.68243126
Direct configuration=    29
   0.41198648  0.50925574  0.45880084
   0.41169287  0.43232670  0.34850085
   0.59654675  0.49617723  0.42041382
   0.59231448  0.32577860  0.43969408
  -0.25285980  0.27743474  0.38085095
   0.59935482  0.35451628  0.56955707
   0.45194498  0.55159572  0.63618668
   0.49114323  0.64534302  0.49827150
   0.41141952  0.38303896  0.43720597
   0.38926009  0.40440376  0.51154961
   0.34438101  0.45685712  0.49906725
   0.58362807  0.45337460  0.58319215
   0.52498006  0.61239592  0.44071179
   0.43284286  0.56632915  0.54887802
   0.47992948  0.53929373  0.37708534
   0.30210938 -0.05894011  0.39063911
   0.40262633  0.47167786  0.69271720
   0.63405961  0.34870337  0.68115175
Direct configuration=    30
   0.41224545  0.50907417  0.45747469
   0.41064339  0.43083669  0.34776821
   0.59522867  0.49791149  0.41937371
   0.59200819  0.32500344  0.43895740
  -0.25211421  0.27720518  0.38050676
   0.59946303  0.35361768  0.57030932
   0.45136113  0.55079031  0.63969411
   0.48915594  0.64637493  0.50073143
   0.41011099  0.38221362  0.43849817
   0.39068553  0.40491732  0.50963216
   0.34276608  0.45638889  0.50029033
   0.58401405  0.45443363  0.58323306
   0.52876455  0.61255089  0.43949260
   0.43289514  0.56773533  0.54619752
   0.48110196  0.53908612  0.37681237
   0.30211964 -0.05895153  0.39064759
   0.40269781  0.47197775  0.69309089
   0.63421288  0.34839648  0.68176367
Direct configuration=    31
   0.41220482  0.50910265  0.45768274
   0.41080803  0.43107044  0.34788314
   0.59543544  0.49763942  0.41953688
   0.59205624  0.32512505  0.43907297
  -0.25223118  0.27724119  0.38056076
   0.59944605  0.35375865  0.57019131
   0.45145272  0.55091666  0.63914388
   0.48946770  0.64621305  0.50034553
   0.41031627  0.38234309  0.43829545
   0.39046191  0.40483675  0.50993296
   0.34301943  0.45646234  0.50009845
   0.58395350  0.45426749  0.58322664
   0.52817086  0.61252658  0.43968387
   0.43288694  0.56751474  0.54661803
   0.48091802  0.53911869  0.37685519
   0.30211803 -0.05894974  0.39064626
   0.40268660  0.47193071  0.69303227
   0.63418884  0.34844462  0.68166768
Direct configuration=    32
   0.41247809  0.50926738  0.45747193
   0.41100583  0.43146439  0.34789621
   0.59531430  0.49758625  0.41971437
   0.59214169  0.32525171  0.43901506
  -0.25239693  0.27729653  0.38063761
   0.59947631  0.35377978  0.57023057
   0.45123714  0.55069172  0.63854787
   0.48924014  0.64575630  0.50041014
   0.41059694  0.38225706  0.43807359
   0.39055109  0.40444421  0.51045875
   0.34258080  0.45675487  0.50005224
   0.58387580  0.45425087  0.58317725
   0.52784981  0.61195658  0.43937236
   0.43324788  0.56781034  0.54730945
   0.48101295  0.53923017  0.37711439
   0.30211767 -0.05895028  0.39064619
   0.40288433  0.47220144  0.69282044
   0.63414641  0.34851306  0.68152557
Direct configuration=    33
   0.41329787  0.50976156  0.45683949
   0.41159922  0.43264627  0.34793542
   0.59495087  0.49742671  0.42024684
   0.59239803  0.32563169  0.43884133
  -0.25289420  0.27746256  0.38086819
   0.59956708  0.35384320  0.57034834
   0.45059039  0.55001692  0.63675986
   0.48855744  0.64438608  0.50060399
   0.41143894  0.38199894  0.43740801
   0.39081861  0.40326657  0.51203612
   0.34126492  0.45763246  0.49991358
   0.58364270  0.45420100  0.58302910
   0.52688668  0.61024657  0.43843786
   0.43433070  0.56869716  0.54938371
   0.48129774  0.53956463  0.37789199
   0.30211658 -0.05895191  0.39064598
   0.40347752  0.47301362  0.69218496
   0.63401913  0.34871836  0.68109923
Direct configuration=    34
   0.41493744  0.51074992  0.45557463
   0.41278600  0.43501002  0.34801383
   0.59422401  0.49710764  0.42131179
   0.59291072  0.32639165  0.43849386
  -0.25388875  0.27779463  0.38132934
   0.59974862  0.35397002  0.57058388
   0.44929690  0.54866731  0.63318384
   0.48719205  0.64164563  0.50099167
   0.41312294  0.38148270  0.43607686
   0.39135367  0.40091129  0.51519086
   0.33863317  0.45938764  0.49963627
   0.58317649  0.45410126  0.58273279
   0.52496042  0.60682655  0.43656885
   0.43649635  0.57047080  0.55353222
   0.48186730  0.54023355  0.37944719
   0.30211441 -0.05895517  0.39064555
   0.40466389  0.47463799  0.69091400
   0.63376458  0.34912896  0.68024655
Direct configuration=    35
   0.41821658  0.51272663  0.45304491
   0.41515955  0.43973753  0.34817065
   0.59277028  0.49646949  0.42344169
   0.59393610  0.32791157  0.43779894
  -0.25587783  0.27845875  0.38225164
   0.60011169  0.35422368  0.57105496
   0.44670991  0.54596808  0.62603179
   0.48446128  0.63616473  0.50176704
   0.41649095  0.38045024  0.43341455
   0.39242377  0.39620073  0.52150034
   0.33336966  0.46289800  0.49908164
   0.58224409  0.45390178  0.58214018
   0.52110790  0.59998650  0.43283084
   0.44082765  0.57401807  0.56182924
   0.48300644  0.54157138  0.38255759
   0.30211007 -0.05896168  0.39064469
   0.40703665  0.47788672  0.68837208
   0.63325546  0.34995017  0.67854121
Direct configuration=    36
   0.41631418  0.51157983  0.45451254
   0.41378253  0.43699486  0.34807967
   0.59361366  0.49683971  0.42220603
   0.59334123  0.32702978  0.43820210
  -0.25472386  0.27807346  0.38171656
   0.59990105  0.35407652  0.57078166
   0.44821076  0.54753404  0.63018107
   0.48604555  0.63934449  0.50131721
   0.41453699  0.38104922  0.43495909
   0.39180295  0.39893357  0.51783988
   0.33642330  0.46086146  0.49940341
   0.58278502  0.45401751  0.58248399
   0.52334295  0.60395477  0.43499945
   0.43831484  0.57196011  0.55701570
   0.48234557  0.54079524  0.38075309
   0.30211259 -0.05895790  0.39064519
   0.40566009  0.47600196  0.68984678
   0.63355083  0.34947374  0.67953057
Direct configuration=    37
   0.41689461  0.51195209  0.45475405
   0.41438928  0.43810932  0.34808051
   0.59301633  0.49678489  0.42274197
   0.59362088  0.32743359  0.43791714
  -0.25525840  0.27825755  0.38196176
   0.60000492  0.35402595  0.57092542
   0.44759006  0.54605813  0.63025072
   0.48521930  0.63735741  0.50158919
   0.41509071  0.38103711  0.43537960
   0.39154130  0.39865147  0.51795989
   0.33606919  0.46086759  0.49942077
   0.58255415  0.45409342  0.58227681
   0.52231384  0.60219267  0.43409873
   0.43937536  0.57365454  0.55688028
   0.48300883  0.54131039  0.38141612
   0.30211270 -0.05896064  0.39064571
   0.40638603  0.47704042  0.68901903
   0.63343113  0.34969647  0.67915629
Direct configuration=    38
   0.41863591  0.51306884  0.45547857
   0.41620955  0.44145271  0.34808302
   0.59122431  0.49662042  0.42434980
   0.59445986  0.32864502  0.43706224
  -0.25686202  0.27880984  0.38269734
   0.60031653  0.35387423  0.57135670
   0.44572797  0.54163040  0.63045969
   0.48274057  0.63139616  0.50240514
   0.41675185  0.38100078  0.43664113
   0.39075636  0.39780515  0.51831991
   0.33500684  0.46088598  0.49947285
   0.58186151  0.45432113  0.58165529
   0.51922649  0.59690637  0.43139657
   0.44255693  0.57873785  0.55647400
   0.48499862  0.54285585  0.38340522
   0.30211305 -0.05896884  0.39064728
   0.40856386  0.48015579  0.68653579
   0.63307205  0.35036467  0.67803344
Direct configuration=    39
   0.42211850  0.51530236  0.45692763
   0.41985008  0.44813950  0.34808804
   0.58764027  0.49629148  0.42756546
   0.59613781  0.33106787  0.43535243
  -0.26006926  0.27991440  0.38416850
   0.60093974  0.35357080  0.57221926
   0.44200380  0.53277495  0.63087763
   0.47778310  0.61947368  0.50403704
   0.42007412  0.38092812  0.43916419
   0.38918649  0.39611252  0.51903995
   0.33288216  0.46092277  0.49957702
   0.58047623  0.45477657  0.58041223
   0.51305179  0.58633376  0.42599224
   0.44892006  0.58890446  0.55566145
   0.48897819  0.54594678  0.38738342
   0.30211374 -0.05898525  0.39065042
   0.41291952  0.48638654  0.68156931
   0.63235389  0.35170105  0.67578776
Direct configuration=    40
   0.41908804  0.51335882  0.45566670
   0.41668219  0.44232085  0.34808367
   0.59075900  0.49657771  0.42476728
   0.59467770  0.32895957  0.43684026
  -0.25727841  0.27895324  0.38288834
   0.60039744  0.35383484  0.57146869
   0.44524447  0.54048072  0.63051395
   0.48209695  0.62984829  0.50261701
   0.41718317  0.38099135  0.43696870
   0.39055255  0.39758540  0.51841339
   0.33473100  0.46089076  0.49948638
   0.58168166  0.45438026  0.58149390
   0.51842484  0.59553375  0.43069494
   0.44338304  0.58005776  0.55636851
   0.48551527  0.54325714  0.38392170
   0.30211314 -0.05897097  0.39064769
   0.40912935  0.48096472  0.68589100
   0.63297881  0.35053817  0.67774189
Direct configuration=    41
   0.41924639  0.51403438  0.45783398
   0.41728132  0.44281304  0.34773705
   0.59007015  0.49635263  0.42523019
   0.59492220  0.32934957  0.43620623
  -0.25777145  0.27912791  0.38304848
   0.60017600  0.35340286  0.57090772
   0.44498274  0.53973678  0.63013604
   0.48217913  0.62785212  0.50198290
   0.41743253  0.38102745  0.43857063
   0.38989014  0.39819911  0.51726418
   0.33533021  0.45993743  0.49957323
   0.58140963  0.45507390  0.58119697
   0.51764350  0.59566661  0.43139548
   0.44399074  0.58132568  0.55602818
   0.48615840  0.54283839  0.38292661
   0.30208925 -0.05895451  0.39057186
   0.40918647  0.48106702  0.68554418
   0.63314290  0.35071201  0.67832008
Direct configuration=    42
   0.41955456  0.51534922  0.46205215
   0.41844739  0.44377099  0.34706243
   0.58872945  0.49591456  0.42613115
   0.59539805  0.33010864  0.43497222
  -0.25873107  0.27946788  0.38336016
   0.59974501  0.35256210  0.56981593
   0.44447334  0.53828885  0.62940052
   0.48233908  0.62396697  0.50074874
   0.41791785  0.38109772  0.44168847
   0.38860088  0.39939358  0.51502747
   0.33649645  0.45808197  0.49974227
   0.58088019  0.45642391  0.58061906
   0.51612277  0.59592520  0.43275895
   0.44517351  0.58379342  0.55536578
   0.48741010  0.54202336  0.38098987