       N       E                     dE             d eps       ncg     rms          rms(c)
DAV:   1     0.405725152722E+03    0.40573E+03   -0.16789E+04   128   0.552E+02
DAV:   2     0.642631362473E+02   -0.34146E+03   -0.32752E+03   144   0.163E+02
DAV:   3    -0.791046480202E+02   -0.14337E+03   -0.14153E+03   152   0.854E+01
DAV:   4    -0.951833173485E+02   -0.16079E+02   -0.15812E+02   120   0.346E+01
DAV:   5    -0.959712122531E+02   -0.78789E+00   -0.78283E+00   136   0.737E+00    0.307E+01
DAV:   6    -0.742579794069E+02    0.21713E+02   -0.57063E+02   160   0.561E+01    0.508E+01
DAV:   7    -0.560882738205E+02    0.18170E+02   -0.43137E+02   144   0.808E+01    0.190E+01
DAV:   8    -0.499524510174E+02    0.61358E+01   -0.69914E+01   152   0.191E+01    0.143E+01
DAV:   9    -0.463433424894E+02    0.36091E+01   -0.20614E+01   160   0.932E+00    0.162E+01
DAV:  10    -0.456574744209E+02    0.68587E+00   -0.25406E+01   152   0.102E+01    0.955E+00
DAV:  11    -0.455071028213E+02    0.15037E+00   -0.92444E+00   144   0.490E+00    0.122E+01
DAV:  12    -0.450919881463E+02    0.41511E+00   -0.49617E+00   136   0.334E+00    0.281E+00
DAV:  13    -0.450345783661E+02    0.57410E-01   -0.50707E-01   152   0.198E+00    0.208E+00
DAV:  14    -0.450308748343E+02    0.37035E-02   -0.24154E-01   144   0.127E+00    0.141E+00
DAV:  15    -0.450207651221E+02    0.10110E-01   -0.10685E-01   128   0.713E-01    0.827E-01
DAV:  16    -0.450247606542E+02   -0.39955E-02   -0.45031E-02   136   0.455E-01    0.612E-01
DAV:  17    -0.450294941681E+02   -0.47335E-02   -0.14183E-02   128   0.289E-01    0.515E-01
DAV:  18    -0.450344461710E+02   -0.49520E-02   -0.56362E-03   136   0.200E-01    0.578E-01
DAV:  19    -0.450412101954E+02   -0.67640E-02   -0.56918E-03   136   0.170E-01    0.715E-01
DAV:  20    -0.450457382519E+02   -0.45281E-02   -0.31628E-03   112   0.129E-01    0.756E-01
DAV:  21    -0.450500181263E+02   -0.42799E-02   -0.10731E-02   112   0.166E-01    0.365E-01
DAV:  22    -0.450543912035E+02   -0.43731E-02   -0.55953E-03   128   0.168E-01    0.219E-01
DAV:  23    -0.450565318021E+02   -0.21406E-02   -0.17905E-03   128   0.121E-01    0.303E-01
DAV:  24    -0.450577050305E+02   -0.11732E-02   -0.36042E-03   104   0.829E-02    0.122E-01
DAV:  25    -0.450578012438E+02   -0.96213E-04   -0.53952E-04    96   0.694E-02
   1 F= -.45057801E+02 E0= -.44986081E+02  d E =-.450578E+02
       N       E                     dE             d eps       ncg     rms          rms(c)
DAV:   1    -0.482223078678E+01    0.40235E+02   -0.31688E+03   112   0.252E+02    0.363E+01
DAV:   2    -0.547615389021E+02   -0.49939E+02   -0.11582E+03   136   0.103E+02    0.845E+01
DAV:   3    -0.581760246720E+02   -0.34145E+01   -0.87063E+01   120   0.288E+01    0.105E+02
DAV:   4    -0.714305766246E+02   -0.13255E+02   -0.16165E+02   144   0.481E+01    0.116E+02
DAV:   5    -0.730400553183E+02   -0.16095E+01   -0.53665E+01   136   0.201E+01    0.106E+02
DAV:   6    -0.588548706412E+02    0.14185E+02   -0.17645E+01   160   0.127E+01    0.113E+02
DAV:   7    -0.514373648403E+02    0.74175E+01   -0.43115E+01   152   0.134E+01    0.143E+02
DAV:   8    -0.730289174023E+02   -0.21592E+02   -0.46212E+01   120   0.180E+01    0.194E+02
DAV:   9    -0.113527132883E+03   -0.40498E+02   -0.29946E+01   136   0.183E+01    0.191E+02
DAV:  10    -0.131596402669E+03   -0.18069E+02   -0.56663E+00   128   0.877E+00    0.200E+02
DAV:  11    -0.171566734553E+03   -0.39970E+02   -0.75177E+00   144   0.120E+01    0.229E+02
DAV:  12    -0.210529419650E+03   -0.38963E+02   -0.79940E+00   144   0.101E+01    0.250E+02
DAV:  13    -0.211115695697E+03   -0.58628E+00   -0.92325E-01   120   0.317E+00    0.248E+02
DAV:  14    -0.222207873468E+03   -0.11092E+02   -0.39353E-01   128   0.266E+00    0.253E+02
DAV:  15    -0.199376474943E+03    0.22831E+02   -0.12018E+00   112   0.482E+00    0.247E+02
DAV:  16    -0.129821169247E+03    0.69555E+02   -0.49282E+01   128   0.198E+01    0.253E+02
DAV:  17    -0.141147716881E+03   -0.11327E+02   -0.87508E+00   120   0.966E+00    0.271E+02
DAV:  18    -0.131964311498E+03    0.91834E+01   -0.12019E+00   144   0.360E+00    0.269E+02
DAV:  19    -0.106832830829E+03    0.25131E+02   -0.71959E+01   152   0.133E+01    0.244E+02
DAV:  20    -0.930132957189E+02    0.13820E+02   -0.11391E+01   136   0.104E+01    0.238E+02
DAV:  21    -0.890436676162E+02    0.39696E+01   -0.23123E+00   136   0.358E+00    0.237E+02
DAV:  22    -0.840482472161E+02    0.49954E+01   -0.42874E+00   160   0.313E+00    0.232E+02
DAV:  23    -0.807810943582E+02    0.32672E+01   -0.13389E+00   136   0.192E+00    0.231E+02
DAV:  24    -0.750129460074E+02    0.57681E+01   -0.64055E+00   136   0.476E+00    0.216E+02
DAV:  25    -0.587806545552E+02    0.16232E+02   -0.85863E+00   136   0.854E+00    0.197E+02
DAV:  26    -0.597595633434E+02   -0.97891E+00   -0.80139E-01   136   0.302E+00    0.198E+02
DAV:  27    -0.600369486960E+02   -0.27739E+00   -0.13223E-01   144   0.112E+00    0.199E+02
DAV:  28    -0.746953859164E+02   -0.14658E+02   -0.27024E+01   128   0.848E+00    0.210E+02
DAV:  29    -0.714193600417E+02    0.32760E+01   -0.45033E+00   128   0.416E+00    0.205E+02
DAV:  30    -0.703932321280E+02    0.10261E+01   -0.27180E+00   136   0.357E+00    0.197E+02
DAV:  31    -0.637695600923E+02    0.66237E+01   -0.19316E+00   136   0.381E+00    0.186E+02
DAV:  32    -0.586084617836E+02    0.51611E+01   -0.15011E+01   144   0.573E+00    0.184E+02
DAV:  33    -0.425140119225E+02    0.16094E+02   -0.14112E+01   136   0.130E+01    0.146E+02
DAV:  34    -0.397102027935E+02    0.28038E+01   -0.18584E+00   144   0.477E+00    0.134E+02
DAV:  35    -0.273744188728E+02    0.12336E+02   -0.10371E+01   144   0.110E+01    0.982E+01
DAV:  36    -0.248758169263E+02    0.24986E+01   -0.17891E+00   160   0.423E+00    0.914E+01
DAV:  37    -0.229562375976E+02    0.19196E+01   -0.10071E+00   152   0.158E+00    0.874E+01
DAV:  38    -0.234005587507E+02   -0.44432E+00   -0.40616E-02   120   0.666E-01    0.883E+01
DAV:  39    -0.232027365455E+02    0.19782E+00   -0.46551E-02   152   0.436E-01    0.891E+01
DAV:  40    -0.199394932693E+02    0.32632E+01   -0.34498E+00   152   0.334E+00    0.833E+01
DAV:  41    -0.175663030002E+02    0.23732E+01   -0.26114E+00   144   0.442E+00    0.733E+01
DAV:  42    -0.163952336311E+02    0.11711E+01   -0.83809E-01   144   0.273E+00    0.645E+01
DAV:  43    -0.145242168863E+02    0.18710E+01   -0.20998E+00   144   0.490E+00    0.469E+01
DAV:  44    -0.142569035620E+02    0.26731E+00   -0.57239E-01   144   0.186E+00    0.433E+01
DAV:  45    -0.143063197965E+02   -0.49416E-01   -0.22886E-02   144   0.523E-01    0.438E+01
DAV:  46    -0.144364972132E+02   -0.13018E+00   -0.46286E-01   144   0.145E+00    0.411E+01
DAV:  47    -0.144949636157E+02   -0.58466E-01   -0.74162E+00   144   0.855E+00    0.292E+01
DAV:  48    -0.143703782089E+02    0.12459E+00   -0.92730E-01   136   0.278E+00    0.294E+01
DAV:  49    -0.143167458778E+02    0.53632E-01   -0.79526E-02   168   0.777E-01    0.294E+01
DAV:  50    -0.141557008630E+02    0.16105E+00   -0.15853E-01   152   0.616E-01    0.290E+01
DAV:  51    -0.143405198499E+02   -0.18482E+00   -0.12643E+00   152   0.240E+00    0.290E+01
DAV:  52    -0.126023417117E+02    0.17382E+01   -0.36240E+00   144   0.323E+00    0.235E+01
DAV:  53    -0.118818197663E+02    0.72052E+00   -0.18014E+00   152   0.257E+00    0.232E+01
DAV:  54    -0.116155401649E+02    0.26628E+00   -0.46120E-01   144   0.130E+00    0.237E+01
DAV:  55    -0.111462830812E+02    0.46926E+00   -0.15377E+00   144   0.192E+00    0.216E+01
DAV:  56    -0.109917649263E+02    0.15452E+00   -0.44424E-01   168   0.158E+00    0.237E+01
DAV:  57    -0.107765449999E+02    0.21522E+00   -0.11689E+01   152   0.847E+00    0.170E+01
DAV:  58    -0.109329025653E+02   -0.15636E+00   -0.31593E+00   152   0.437E+00    0.187E+01
DAV:  59    -0.109454403669E+02   -0.12538E-01   -0.17814E-01   152   0.110E+00    0.181E+01
DAV:  60    -0.108528877904E+02    0.92553E-01   -0.42460E-02   160   0.529E-01
   2 F= -.10852888E+02 E0= -.10832648E+02  d E =0.342049E+02
       N       E                     dE             d eps       ncg     rms          rms(c)
DAV:   1    -0.462176959595E+02   -0.35272E+02   -0.15140E+03    96   0.178E+02    0.791E+01
DAV:   2    -0.935374287843E+02   -0.47320E+02   -0.38497E+02   144   0.513E+01    0.680E+01
DAV:   3    -0.937274894410E+02   -0.19006E+00   -0.91496E+02   136   0.819E+01    0.447E+01
DAV:   4    -0.122217191446E+03   -0.28490E+02   -0.30979E+02   144   0.739E+01    0.329E+01
DAV:   5    -0.988930863620E+02    0.23324E+02   -0.76427E+01   128   0.289E+01    0.247E+01
DAV:   6    -0.905530843447E+02    0.83400E+01   -0.26513E+01   160   0.169E+01    0.213E+01
DAV:   7    -0.791554615422E+02    0.11398E+02   -0.92600E+00   136   0.972E+00    0.186E+01
DAV:   8    -0.703813886092E+02    0.87741E+01   -0.57613E+00   152   0.805E+00    0.154E+01
DAV:   9    -0.676931847994E+02    0.26882E+01   -0.62710E-01   160   0.265E+00    0.144E+01
DAV:  10    -0.654372395106E+02    0.22559E+01   -0.27753E-01   152   0.162E+00    0.138E+01
DAV:  11    -0.634003099202E+02    0.20369E+01   -0.36396E-01   160   0.163E+00    0.130E+01
DAV:  12    -0.610911269385E+02    0.23092E+01   -0.56668E-01   152   0.175E+00    0.116E+01
DAV:  13    -0.615528380313E+02   -0.46171E+00   -0.17431E-01   136   0.928E-01    0.119E+01
DAV:  14    -0.589220533650E+02    0.26308E+01   -0.23166E+00   168   0.282E+00    0.533E+00
DAV:  15    -0.593741572808E+02   -0.45210E+00   -0.43493E+00   152   0.198E+00    0.141E+01
DAV:  16    -0.590037136940E+02    0.37044E+00   -0.88272E+00   144   0.274E+00    0.667E+00
DAV:  17    -0.617141238799E+02   -0.27104E+01   -0.38131E+00   144   0.363E+00    0.121E+01
DAV:  18    -0.747848755062E+02   -0.13071E+02   -0.17737E+01   152   0.832E+00    0.410E+01
DAV:  19    -0.723509185647E+02    0.24340E+01   -0.39212E+00   128   0.408E+00    0.408E+01
DAV:  20    -0.749534867747E+02   -0.26026E+01   -0.37674E-01   128   0.217E+00    0.418E+01
DAV:  21    -0.744145286535E+02    0.53896E+00   -0.51959E-02   128   0.813E-01    0.417E+01
DAV:  22    -0.687021590872E+02    0.57124E+01   -0.69639E-01   128   0.296E+00    0.393E+01
DAV:  23    -0.684462705903E+02    0.25589E+00   -0.79328E-02   136   0.768E-01    0.390E+01
DAV:  24    -0.671204524325E+02    0.13258E+01   -0.66866E-02   152   0.121E+00    0.384E+01
DAV:  25    -0.590954265473E+02    0.80250E+01   -0.45530E+00   144   0.772E+00    0.101E+01
DAV:  26    -0.590889655612E+02    0.64610E-02   -0.47668E+00   144   0.223E+00    0.690E+00
DAV:  27    -0.596783151064E+02   -0.58935E+00   -0.45996E-01   160   0.122E+00    0.991E+00
DAV:  28    -0.589697238594E+02    0.70859E+00   -0.23768E-01   152   0.134E+00    0.553E+00
DAV:  29    -0.589970888620E+02   -0.27365E-01   -0.10400E+00   144   0.120E+00    0.789E+00
DAV:  30    -0.588509369007E+02    0.14615E+00   -0.25243E-01   112   0.701E-01    0.455E+00
DAV:  31    -0.588585651959E+02   -0.76283E-02   -0.97382E-01   144   0.997E-01    0.401E+00
DAV:  32    -0.590524612044E+02   -0.19390E+00   -0.18528E-01   144   0.724E-01    0.698E+00
DAV:  33    -0.588732175787E+02    0.17924E+00   -0.53684E-01   144   0.102E+00    0.204E+00
DAV:  34    -0.588331928765E+02    0.40025E-01   -0.53084E-02   112   0.447E-01    0.171E+00
DAV:  35    -0.588653989426E+02   -0.32206E-01   -0.16558E-01   160   0.422E-01    0.345E+00
DAV:  36    -0.588453707420E+02    0.20028E-01   -0.31421E-03   128   0.164E-01    0.335E+00
DAV:  37    -0.588381845459E+02    0.71862E-02   -0.44758E-01   144   0.620E-01    0.300E+00
DAV:  38    -0.590877327773E+02   -0.24955E+00   -0.43701E-01   144   0.740E-01    0.727E+00
DAV:  39    -0.591425936474E+02   -0.54861E-01   -0.11021E-02   136   0.376E-01    0.759E+00
DAV:  40    -0.590189294168E+02    0.12366E+00   -0.28017E-02   136   0.264E-01    0.624E+00
DAV:  41    -0.589561160098E+02    0.62813E-01   -0.22329E-02   144   0.199E-01    0.513E+00
DAV:  42    -0.589341501879E+02    0.21966E-01   -0.43179E-03   120   0.131E-01    0.466E+00
DAV:  43    -0.589067389507E+02    0.27411E-01   -0.83477E-03   120   0.120E-01    0.392E+00
DAV:  44    -0.589128583327E+02   -0.61194E-02   -0.17100E-03    88   0.828E-02    0.421E+00
DAV:  45    -0.589120589080E+02    0.79942E-03   -0.61276E-04    88   0.647E-02    0.409E+00
DAV:  46    -0.588719412660E+02    0.40118E-01   -0.49114E-02   136   0.300E-01    0.232E+00
DAV:  47    -0.588529581461E+02    0.18983E-01   -0.79118E-02   144   0.351E-01    0.171E+00
DAV:  48    -0.588357231149E+02    0.17235E-01   -0.51261E-03   112   0.167E-01    0.143E+00
DAV:  49    -0.588526576532E+02   -0.16935E-01   -0.65887E-02   120   0.245E-01    0.233E+00
DAV:  50    -0.588546955854E+02   -0.20379E-02   -0.36202E-02   104   0.253E-01    0.149E+00
DAV:  51    -0.588473430657E+02    0.73525E-02   -0.93947E-03   120   0.132E-01    0.164E+00
DAV:  52    -0.588406786766E+02    0.66644E-02   -0.13465E-02    96   0.156E-01    0.144E+00
DAV:  53    -0.588470491074E+02   -0.63704E-02   -0.49459E-04    96   0.629E-02    0.142E+00
DAV:  54    -0.588458559102E+02    0.11932E-02   -0.38899E-05    56   0.285E-02    0.142E+00
DAV:  55    -0.588453091600E+02    0.54675E-03   -0.69288E-05    48   0.217E-02    0.140E+00
DAV:  56    -0.588451963114E+02    0.11285E-03   -0.38728E-04    72   0.308E-02    0.143E+00
DAV:  57    -0.588756426964E+02   -0.30446E-01   -0.72291E-02   136   0.291E-01    0.307E+00
DAV:  58    -0.588908225660E+02   -0.15180E-01   -0.15070E-03   112   0.142E-01    0.310E+00
DAV:  59    -0.588865665644E+02    0.42560E-02   -0.83932E-04    88   0.520E-02    0.287E+00
DAV:  60    -0.588785288397E+02    0.80377E-02   -0.16754E-03   104   0.736E-02
   3 F= -.58878529E+02 E0= -.58806006E+02  d E =-.138207E+02
       N       E                     dE             d eps       ncg     rms          rms(c)
DAV:   1    -0.595644347454E+02   -0.67787E+00   -0.77097E+00    96   0.130E+01    0.366E+00
DAV:   2    -0.717646357433E+02   -0.12200E+02   -0.58349E+01   128   0.823E+00    0.408E+01
DAV:   3    -0.594977624270E+02    0.12267E+02   -0.78936E+00   128   0.118E+01    0.407E+00
DAV:   4    -0.595076500350E+02   -0.98876E-02   -0.73931E-01   136   0.229E+00    0.864E-01
DAV:   5    -0.595239766662E+02   -0.16327E-01   -0.76482E-02   136   0.951E-01    0.925E-01
DAV:   6    -0.595287076498E+02   -0.47310E-02   -0.64076E-02   152   0.833E-01    0.808E-01
DAV:   7    -0.595299573102E+02   -0.12497E-02   -0.28512E-02   144   0.566E-01    0.672E-01
DAV:   8    -0.595336555106E+02   -0.36982E-02   -0.11739E-02   152   0.341E-01    0.697E-01
DAV:   9    -0.595344754538E+02   -0.81994E-03   -0.32100E-03   112   0.134E-01    0.431E-01
DAV:  10    -0.595420034306E+02   -0.75280E-02   -0.66323E-03   128   0.235E-01    0.549E-01
DAV:  11    -0.595412872916E+02    0.71614E-03   -0.34019E-03   144   0.144E-01    0.177E-01
DAV:  12    -0.595412939840E+02   -0.66925E-05   -0.59390E-04   104   0.803E-02
   4 F= -.59541294E+02 E0= -.59473527E+02  d E =-.144835E+02
       N       E                     dE             d eps       ncg     rms          rms(c)
DAV:   1    -0.606325170548E+02   -0.10912E+01   -0.13014E+02    96   0.526E+01    0.612E+00
DAV:   2    -0.763310905288E+02   -0.15699E+02   -0.10418E+02   120   0.157E+01    0.429E+01
DAV:   3    -0.604026365790E+02    0.15928E+02   -0.12785E+01   136   0.166E+01    0.405E+00
DAV:   4    -0.604448881983E+02   -0.42252E-01   -0.36911E+00   144   0.595E+00    0.362E+00
DAV:   5    -0.602774650732E+02    0.16742E+00   -0.10789E+00   144   0.329E+00    0.178E+00
DAV:   6    -0.602699358973E+02    0.75292E-02   -0.32270E-01   152   0.166E+00    0.104E+00
DAV:   7    -0.602547866741E+02    0.15149E-01   -0.86808E-02   144   0.761E-01    0.723E-01
DAV:   8    -0.602551768472E+02   -0.39017E-03   -0.22281E-02   152   0.356E-01    0.294E-01
DAV:   9    -0.602574596284E+02   -0.22828E-02   -0.49466E-03   152   0.204E-01    0.186E-01
DAV:  10    -0.602582314028E+02   -0.77177E-03   -0.11192E-03   128   0.112E-01    0.101E-01
DAV:  11    -0.602588812892E+02   -0.64989E-03   -0.62008E-04   112   0.961E-02    0.760E-02
DAV:  12    -0.602592700656E+02   -0.38878E-03   -0.45387E-04    96   0.846E-02    0.753E-02
DAV:  13    -0.602595366960E+02   -0.26663E-03   -0.15787E-04    72   0.427E-02    0.456E-02
DAV:  14    -0.602600109214E+02   -0.47423E-03   -0.16388E-04    80   0.374E-02    0.312E-02
DAV:  15    -0.602602964328E+02   -0.28551E-03   -0.10909E-04    72   0.281E-02    0.237E-02
DAV:  16    -0.602605005867E+02   -0.20415E-03   -0.16617E-04    80   0.250E-02    0.386E-02
DAV:  17    -0.602606011589E+02   -0.10057E-03   -0.22877E-05    72   0.187E-02    0.238E-02
DAV:  18    -0.602607794104E+02   -0.17825E-03   -0.84977E-05    72   0.206E-02    0.224E-02
DAV:  19    -0.602608348412E+02   -0.55431E-04   -0.29199E-05    72   0.130E-02
   5 F= -.60260835E+02 E0= -.60196948E+02  d E =-.152030E+02
       N       E                     dE             d eps       ncg     rms          rms(c)
DAV:   1    -0.606132964551E+02   -0.35252E+00   -0.27236E+01    96   0.240E+01    0.394E+00
DAV:   2    -0.646327380883E+02   -0.40194E+01   -0.30246E+01   144   0.107E+01    0.137E+01
DAV:   3    -0.606763445103E+02    0.39564E+01   -0.19538E+00   152   0.471E+00    0.713E+00
DAV:   4    -0.605473614923E+02    0.12898E+00   -0.24865E+00   152   0.329E+00    0.621E+00
DAV:   5    -0.604739847821E+02    0.73377E-01   -0.19134E+00   144   0.234E+00    0.277E+00
DAV:   6    -0.605212159497E+02   -0.47231E-01   -0.90414E-01   144   0.144E+00    0.461E+00
DAV:   7    -0.604515761105E+02    0.69640E-01   -0.10184E+00   144   0.146E+00    0.194E+00
DAV:   8    -0.604542041814E+02   -0.26281E-02   -0.57852E-02   112   0.522E-01    0.389E-01
DAV:   9    -0.604565558781E+02   -0.23517E-02   -0.86257E-03   144   0.202E-01    0.215E-01
DAV:  10    -0.604567475233E+02   -0.19165E-03   -0.15453E-03   112   0.104E-01    0.101E-01
DAV:  11    -0.604571289453E+02   -0.38142E-03   -0.86226E-04   112   0.860E-02    0.900E-02
DAV:  12    -0.604571948016E+02   -0.65856E-04   -0.30777E-04    72   0.491E-02
   6 F= -.60457195E+02 E0= -.60393211E+02  d E =-.153994E+02
       N       E                     dE             d eps       ncg     rms          rms(c)
DAV:   1    -0.605106231315E+02   -0.53494E-01   -0.18383E+00    96   0.627E+00    0.809E-01
DAV:   2    -0.609661903112E+02   -0.45557E+00   -0.33649E+00   128   0.210E+00    0.131E+01
DAV:   3    -0.604656144945E+02    0.50058E+00   -0.45940E+00   136   0.202E+00    0.111E+00
DAV:   4    -0.605032277215E+02   -0.37613E-01   -0.61854E-02   136   0.680E-01    0.326E-01
DAV:   5    -0.605027540556E+02    0.47367E-03   -0.10432E-02   136   0.326E-01    0.216E-01
DAV:   6    -0.605028119137E+02   -0.57858E-04   -0.46723E-03   152   0.241E-01    0.151E-01
DAV:   7    -0.605030570597E+02   -0.24515E-03   -0.28107E-03   144   0.188E-01    0.140E-01
DAV:   8    -0.605029782274E+02    0.78832E-04   -0.12170E-03   136   0.126E-01    0.834E-02
DAV:   9    -0.605030506778E+02   -0.72450E-04   -0.17609E-04    72   0.458E-02
   7 F= -.60503051E+02 E0= -.60439390E+02  d E =-.154452E+02
       N       E                     dE             d eps       ncg     rms          rms(c)
DAV:   1    -0.623933525382E+02   -0.18904E+01   -0.22360E+02   112   0.121E+02    0.472E+00
DAV:   2    -0.665672716176E+02   -0.41739E+01   -0.34511E+01   104   0.242E+01    0.297E+01
DAV:   3    -0.641748743169E+02    0.23924E+01   -0.29090E+01   136   0.937E+00    0.610E+00
DAV:   4    -0.639062190889E+02    0.26866E+00   -0.17652E+00   144   0.397E+00    0.236E+00
DAV:   5    -0.638822167596E+02    0.24002E-01   -0.63920E-01   144   0.325E+00    0.187E+00
DAV:   6    -0.638654133543E+02    0.16803E-01   -0.43200E-01   136   0.245E+00    0.128E+00
DAV:   7    -0.638593705113E+02    0.60428E-02   -0.16175E-01   136   0.147E+00    0.490E-01
DAV:   8    -0.638588879778E+02    0.48253E-03   -0.24137E-02   136   0.556E-01    0.257E-01
DAV:   9    -0.638611636588E+02   -0.22757E-02   -0.44298E-03   136   0.223E-01    0.221E-01
DAV:  10    -0.638616888936E+02   -0.52523E-03   -0.15461E-03   136   0.134E-01    0.143E-01
DAV:  11    -0.638621707570E+02   -0.48186E-03   -0.60588E-04    88   0.825E-02    0.741E-02
DAV:  12    -0.638623744974E+02   -0.20374E-03   -0.18158E-04    72   0.521E-02    0.468E-02
DAV:  13    -0.638626451839E+02   -0.27069E-03   -0.87935E-05    72   0.363E-02    0.318E-02
DAV:  14    -0.638629317661E+02   -0.28658E-03   -0.99824E-05    72   0.322E-02    0.231E-02
DAV:  15    -0.638631100805E+02   -0.17831E-03   -0.64522E-05    72   0.222E-02    0.198E-02
DAV:  16    -0.638632182548E+02   -0.10817E-03   -0.27751E-05    72   0.165E-02    0.129E-02
DAV:  17    -0.638633643871E+02   -0.14613E-03   -0.41536E-05    72   0.157E-02    0.123E-02
DAV:  18    -0.638634401717E+02   -0.75785E-04   -0.24441E-05    72   0.114E-02
   8 F= -.63863440E+02 E0= -.63800933E+02  d E =-.336039E+01
       N       E                     dE             d eps       ncg     rms          rms(c)
DAV:   1    -0.639660732452E+02   -0.10271E+00   -0.15145E+01   104   0.340E+01    0.124E+00
DAV:   2    -0.645143471294E+02   -0.54827E+00   -0.43466E+00    96   0.649E+00    0.107E+01
DAV:   3    -0.640544827696E+02    0.45986E+00   -0.35004E+00   144   0.263E+00    0.127E+00
DAV:   4    -0.640809987086E+02   -0.26516E-01   -0.12611E-01   152   0.132E+00    0.630E-01
DAV:   5    -0.640788943373E+02    0.21044E-02   -0.50673E-02   136   0.950E-01    0.400E-01
DAV:   6    -0.640795728517E+02   -0.67851E-03   -0.26578E-02   136   0.627E-01    0.256E-01
DAV:   7    -0.640789720189E+02    0.60083E-03   -0.65584E-03   144   0.277E-01    0.121E-01
DAV:   8    -0.640793910642E+02   -0.41905E-03   -0.10449E-03   120   0.100E-01    0.870E-02
DAV:   9    -0.640794115368E+02   -0.20473E-04   -0.23705E-04    72   0.542E-02
   9 F= -.64079412E+02 E0= -.64016402E+02  d E =-.357636E+01
       N       E                     dE             d eps       ncg     rms          rms(c)
DAV:   1    -0.642984543206E+02   -0.21906E+00   -0.30755E+02   112   0.149E+02    0.706E+00
DAV:   2    -0.869978102374E+02   -0.22699E+02   -0.13031E+02    96   0.342E+01    0.435E+01
DAV:   3    -0.674905933977E+02    0.19507E+02   -0.15373E+01   120   0.250E+01    0.703E+00
DAV:   4    -0.674102098756E+02    0.80384E-01   -0.30497E+00   136   0.437E+00    0.290E+00
DAV:   5    -0.673950415436E+02    0.15168E-01   -0.50270E-01   144   0.215E+00    0.178E+00
DAV:   6    -0.674168768179E+02   -0.21835E-01   -0.47465E-01   136   0.214E+00    0.196E+00
DAV:   7    -0.674081935862E+02    0.86832E-02   -0.22542E-01   144   0.161E+00    0.440E-01
DAV:   8    -0.674101865654E+02   -0.19930E-02   -0.28175E-02   136   0.665E-01    0.361E-01
DAV:   9    -0.674105423590E+02   -0.35579E-03   -0.13124E-02   144   0.340E-01    0.287E-01
DAV:  10    -0.674119542900E+02   -0.14119E-02   -0.39989E-03   136   0.182E-01    0.116E-01
DAV:  11    -0.674124572630E+02   -0.50297E-03   -0.91723E-04    96   0.931E-02    0.839E-02
DAV:  12    -0.674128110859E+02   -0.35382E-03   -0.50147E-04    80   0.616E-02    0.720E-02
DAV:  13    -0.674130849304E+02   -0.27384E-03   -0.17013E-04    72   0.391E-02    0.293E-02
DAV:  14    -0.674133714418E+02   -0.28651E-03   -0.73888E-05    72   0.335E-02    0.134E-02
DAV:  15    -0.674135435715E+02   -0.17213E-03   -0.48424E-05    56   0.222E-02    0.113E-02
DAV:  16    -0.674136340656E+02   -0.90494E-04   -0.19724E-05    48   0.150E-02
  10 F= -.67413634E+02 E0= -.67355628E+02  d E =-.333422E+01
       N       E                     dE             d eps       ncg     rms          rms(c)
DAV:   1    -0.367855760659E+02    0.30628E+02   -0.19293E+03   112   0.341E+02    0.141E+01
DAV:   2    -0.927036928284E+02   -0.55918E+02   -0.39981E+02    96   0.877E+01    0.455E+01
DAV:   3    -0.718585741043E+02    0.20845E+02   -0.60713E+01   136   0.523E+01    0.118E+01
DAV:   4    -0.699282755319E+02    0.19303E+01   -0.12032E+01   136   0.139E+01    0.598E+00
DAV:   5    -0.695006511247E+02    0.42762E+00   -0.28050E+00   136   0.717E+00    0.384E+00
DAV:   6    -0.694265897317E+02    0.74061E-01   -0.13520E+00   144   0.470E+00    0.269E+00
DAV:   7    -0.694314108259E+02   -0.48211E-02   -0.69419E-01   152   0.211E+00    0.158E+00
DAV:   8    -0.694500789230E+02   -0.18668E-01   -0.49430E-01   136   0.138E+00    0.196E+00
DAV:   9    -0.694290709910E+02    0.21008E-01   -0.19380E-01   136   0.935E-01    0.488E-01
DAV:  10    -0.694409750783E+02   -0.11904E-01   -0.26196E-02   144   0.393E-01    0.442E-01
DAV:  11    -0.694404662746E+02    0.50880E-03   -0.36365E-03   136   0.202E-01    0.178E-01
DAV:  12    -0.694427442254E+02   -0.22780E-02   -0.22871E-03   120   0.111E-01    0.220E-01
DAV:  13    -0.694434353324E+02   -0.69111E-03   -0.85300E-04   112   0.868E-02    0.106E-01
DAV:  14    -0.694448251777E+02   -0.13898E-02   -0.34027E-04    88   0.579E-02    0.926E-02
DAV:  15    -0.694457767433E+02   -0.95157E-03   -0.28897E-04    96   0.420E-02    0.332E-02
DAV:  16    -0.694463437712E+02   -0.56703E-03   -0.55387E-05    72   0.278E-02    0.274E-02
DAV:  17    -0.694468547419E+02   -0.51097E-03   -0.10265E-04    80   0.228E-02    0.761E-03
DAV:  18    -0.694471311834E+02   -0.27644E-03   -0.31024E-05    72   0.150E-02    0.106E-02
DAV:  19    -0.694473209841E+02   -0.18980E-03   -0.23656E-05    72   0.114E-02    0.971E-03
DAV:  20    -0.694474599418E+02   -0.13896E-03   -0.16801E-05    72   0.843E-03    0.450E-03
DAV:  21    -0.694475521106E+02   -0.92169E-04   -0.13300E-05    72   0.760E-03
  11 F= -.69447552E+02 E0= -.69401563E+02  d E =-.536814E+01
       N       E                     dE             d eps       ncg     rms          rms(c)
DAV:   1    -0.653744831400E+02    0.40730E+01   -0.42451E+02   112   0.171E+02    0.902E+00
DAV:   2    -0.772713844596E+02   -0.11897E+02   -0.13908E+02   136   0.453E+01    0.166E+01
DAV:   3    -0.707569144747E+02    0.65145E+01   -0.18270E+01   144   0.174E+01    0.888E+00
DAV:   4    -0.702483258634E+02    0.50859E+00   -0.52042E+00   144   0.618E+00    0.700E+00
DAV:   5    -0.702797347868E+02   -0.31409E-01   -0.49472E+00   152   0.423E+00    0.683E+00
DAV:   6    -0.706918440199E+02   -0.41211E+00   -0.82490E+00   136   0.452E+00    0.127E+01
DAV:   7    -0.700891647999E+02    0.60268E+00   -0.17815E+00   136   0.263E+00    0.603E+00
DAV:   8    -0.700081263182E+02    0.81038E-01   -0.20968E-01   152   0.124E+00    0.406E+00
DAV:   9    -0.699655838072E+02    0.42543E-01   -0.62757E-01   128   0.107E+00    0.103E+00
DAV:  10    -0.699927505346E+02   -0.27167E-01   -0.75077E-02   120   0.610E-01    0.719E-01
DAV:  11    -0.699925654873E+02    0.18505E-03   -0.10001E-02   144   0.333E-01    0.725E-01
DAV:  12    -0.699942418504E+02   -0.16764E-02   -0.36735E-03   136   0.175E-01    0.557E-01
DAV:  13    -0.699945379621E+02   -0.29611E-03   -0.79982E-03   144   0.168E-01    0.108E-01
DAV:  14    -0.699956878929E+02   -0.11499E-02   -0.16722E-03   128   0.105E-01    0.134E-01
DAV:  15    -0.699958989966E+02   -0.21110E-03   -0.34947E-04    56   0.648E-02    0.689E-02
DAV:  16    -0.699962015560E+02   -0.30256E-03   -0.19239E-04    64   0.357E-02    0.365E-02
DAV:  17    -0.699963955884E+02   -0.19403E-03   -0.11876E-04    64   0.282E-02    0.253E-02
DAV:  18    -0.699965506980E+02   -0.15511E-03   -0.18186E-04    48   0.281E-02    0.583E-02
DAV:  19    -0.699965884242E+02   -0.37726E-04   -0.51034E-05    48   0.198E-02
  12 F= -.69996588E+02 E0= -.69930100E+02  d E =-.591718E+01
       N       E                     dE             d eps       ncg     rms          rms(c)
DAV:   1    -0.699093899228E+02    0.87161E-01   -0.29071E+01   112   0.508E+01    0.269E+00
DAV:   2    -0.742095418949E+02   -0.43002E+01   -0.29392E+01   120   0.119E+01    0.321E+01
DAV:   3    -0.700889784878E+02    0.41206E+01   -0.23413E+01   120   0.966E+00    0.138E+00
DAV:   4    -0.701649558571E+02   -0.75977E-01   -0.41666E-01   160   0.238E+00    0.112E+00
DAV:   5    -0.701596215796E+02    0.53343E-02   -0.95211E-02   136   0.135E+00    0.521E-01
DAV:   6    -0.701657095218E+02   -0.60879E-02   -0.26265E-02   136   0.732E-01    0.300E-01
DAV:   7    -0.701668498107E+02   -0.11403E-02   -0.52947E-03   136   0.286E-01    0.160E-01
DAV:   8    -0.701671522578E+02   -0.30245E-03   -0.10590E-03   128   0.122E-01    0.146E-01
DAV:   9    -0.701671981752E+02   -0.45917E-04   -0.39564E-04    64   0.675E-02
  13 F= -.70167198E+02 E0= -.70104689E+02  d E =-.608779E+01
       N       E                     dE             d eps       ncg     rms          rms(c)
DAV:   1    -0.709971534939E+02   -0.83000E+00   -0.32457E+01   112   0.521E+01    0.238E+00
DAV:   2    -0.737755440477E+02   -0.27784E+01   -0.19208E+01    96   0.113E+01    0.256E+01
DAV:   3    -0.712011951897E+02    0.25743E+01   -0.17812E+01   120   0.838E+00    0.122E+00
DAV:   4    -0.712670541805E+02   -0.65859E-01   -0.24425E-01   144   0.193E+00    0.833E-01
DAV:   5    -0.712688428655E+02   -0.17887E-02   -0.63029E-02   136   0.117E+00    0.482E-01
DAV:   6    -0.712758334143E+02   -0.69905E-02   -0.32110E-02   144   0.776E-01    0.344E-01
DAV:   7    -0.712754969738E+02    0.33644E-03   -0.13211E-02   144   0.387E-01    0.223E-01
DAV:   8    -0.712758463055E+02   -0.34933E-03   -0.21747E-03   128   0.150E-01    0.135E-01
DAV:   9    -0.712759363422E+02   -0.90037E-04   -0.23895E-04    80   0.696E-02
  14 F= -.71275936E+02 E0= -.71223044E+02  d E =-.110874E+01
       N       E                     dE             d eps       ncg     rms          rms(c)
DAV:   1    -0.699978860962E+02    0.12780E+01   -0.32509E+02   112   0.146E+02    0.697E+00
DAV:   2    -0.876440626759E+02   -0.17646E+02   -0.76647E+01    96   0.355E+01    0.408E+01
DAV:   3    -0.731255923016E+02    0.14518E+02   -0.14889E+01   120   0.271E+01    0.340E+00
DAV:   4    -0.731437156853E+02   -0.18123E-01   -0.18727E+00   128   0.486E+00    0.227E+00
DAV:   5    -0.731178356132E+02    0.25880E-01   -0.65133E-01   144   0.307E+00    0.156E+00
DAV:   6    -0.731190155355E+02   -0.11799E-02   -0.29198E-01   136   0.205E+00    0.852E-01
DAV:   7    -0.731167849208E+02    0.22306E-02   -0.95936E-02   136   0.114E+00    0.427E-01
DAV:   8    -0.731195502988E+02   -0.27654E-02   -0.17100E-02   128   0.474E-01    0.312E-01
DAV:   9    -0.731199909527E+02   -0.44065E-03   -0.33788E-03   136   0.199E-01    0.137E-01
DAV:  10    -0.731203347378E+02   -0.34379E-03   -0.57340E-04    96   0.972E-02    0.104E-01
DAV:  11    -0.731205942799E+02   -0.25954E-03   -0.25771E-04    72   0.637E-02    0.543E-02
DAV:  12    -0.731208008625E+02   -0.20658E-03   -0.11477E-04    80   0.403E-02    0.372E-02
DAV:  13    -0.731210039317E+02   -0.20307E-03   -0.43323E-05    72   0.262E-02    0.251E-02
DAV:  14    -0.731211841952E+02   -0.18026E-03   -0.55231E-05    72   0.228E-02    0.959E-03
DAV:  15    -0.731212268546E+02   -0.42659E-04   -0.14764E-05    72   0.165E-02
  15 F= -.73121227E+02 E0= -.73085316E+02  d E =-.295403E+01
       N       E                     dE             d eps       ncg     rms          rms(c)
DAV:   1    -0.745739217518E+02   -0.14527E+01   -0.35705E+01   112   0.543E+01    0.192E+00
DAV:   2    -0.749503596454E+02   -0.37644E+00   -0.46175E+00    96   0.105E+01    0.367E+00
DAV:   3    -0.749767326958E+02   -0.26373E-01   -0.21368E+00   144   0.336E+00    0.384E+00
DAV:   4    -0.748687323630E+02    0.10800E+00   -0.81598E-01   152   0.221E+00    0.995E-01
DAV:   5    -0.748705422535E+02   -0.18099E-02   -0.85749E-02   136   0.130E+00    0.425E-01
DAV:   6    -0.748734899302E+02   -0.29477E-02   -0.35616E-02   136   0.827E-01    0.308E-01
DAV:   7    -0.748725828364E+02    0.90709E-03   -0.11100E-02   136   0.449E-01    0.125E-01
DAV:   8    -0.748727453601E+02   -0.16252E-03   -0.16237E-03   128   0.129E-01    0.519E-02
DAV:   9    -0.748729421665E+02   -0.19681E-03   -0.15813E-04    72   0.586E-02    0.479E-02
DAV:  10    -0.748729921370E+02   -0.49971E-04   -0.79786E-05    72   0.383E-02
  16 F= -.74872992E+02 E0= -.74837248E+02  d E =-.175177E+01
       N       E                     dE             d eps       ncg     rms          rms(c)
DAV:   1    -0.732968407209E+02    0.15761E+01   -0.35064E+02   112   0.151E+02    0.584E+00
DAV:   2    -0.789248482052E+02   -0.56280E+01   -0.52657E+01    96   0.357E+01    0.167E+01
DAV:   3    -0.777286959170E+02    0.11962E+01   -0.22755E+01   136   0.152E+01    0.531E+00
DAV:   4    -0.774818420286E+02    0.24685E+00   -0.35197E+00   152   0.647E+00    0.280E+00
DAV:   5    -0.773618812875E+02    0.11996E+00   -0.83778E-01   136   0.381E+00    0.152E+00
DAV:   6    -0.773718568525E+02   -0.99756E-02   -0.28083E-01   136   0.206E+00    0.945E-01
DAV:   7    -0.773681744889E+02    0.36824E-02   -0.88281E-02   136   0.105E+00    0.427E-01
DAV:   8    -0.773688202772E+02   -0.64579E-03   -0.22467E-02   144   0.429E-01    0.160E-01
DAV:   9    -0.773700680045E+02   -0.12477E-02   -0.33651E-03   136   0.203E-01    0.137E-01
DAV:  10    -0.773704357686E+02   -0.36776E-03   -0.10860E-03   112   0.114E-01    0.929E-02
DAV:  11    -0.773707917164E+02   -0.35595E-03   -0.31033E-04    96   0.713E-02    0.648E-02
DAV:  12    -0.773710177543E+02   -0.22604E-03   -0.13683E-04    80   0.472E-02    0.280E-02
DAV:  13    -0.773711959463E+02   -0.17819E-03   -0.41219E-05    72   0.245E-02    0.140E-02
DAV:  14    -0.773714466245E+02   -0.25068E-03   -0.47630E-05    80   0.204E-02    0.750E-03
DAV:  15    -0.773716500383E+02   -0.20341E-03   -0.34969E-05    88   0.147E-02    0.743E-03
DAV:  16    -0.773717368892E+02   -0.86851E-04   -0.10253E-05    72   0.929E-03
  17 F= -.77371737E+02 E0= -.77329761E+02  d E =-.425051E+01
       N       E                     dE             d eps       ncg     rms          rms(c)
DAV:   1    -0.788258527384E+02   -0.14542E+01   -0.64235E+01   112   0.724E+01    0.276E+00
DAV:   2    -0.796223663223E+02   -0.79651E+00   -0.92666E+00   128   0.144E+01    0.427E+00
DAV:   3    -0.794888720688E+02    0.13349E+00   -0.20236E+00   144   0.513E+00    0.331E+00
DAV:   4    -0.794120149345E+02    0.76857E-01   -0.70182E-01   136   0.268E+00    0.129E+00
DAV:   5    -0.794022248117E+02    0.97901E-02   -0.24790E-01   136   0.198E+00    0.784E-01
DAV:   6    -0.794021518559E+02    0.72956E-04   -0.74086E-02   136   0.120E+00    0.463E-01
DAV:   7    -0.794011495019E+02    0.10024E-02   -0.13537E-02   136   0.461E-01    0.186E-01
DAV:   8    -0.794015480833E+02   -0.39858E-03   -0.48907E-03   144   0.209E-01    0.725E-02
DAV:   9    -0.794018008331E+02   -0.25275E-03   -0.58595E-04   104   0.862E-02    0.567E-02
DAV:  10    -0.794020586366E+02   -0.25780E-03   -0.19383E-04    80   0.574E-02    0.310E-02
DAV:  11    -0.794021833023E+02   -0.12467E-03   -0.74751E-05    80   0.363E-02    0.132E-02
DAV:  12    -0.794022674846E+02   -0.84182E-04   -0.25757E-05    72   0.204E-02
  18 F= -.79402267E+02 E0= -.79357772E+02  d E =-.203053E+01
       N       E                     dE             d eps       ncg     rms          rms(c)
DAV:   1    -0.787747796062E+02    0.62740E+00   -0.14967E+02   112   0.107E+02    0.440E+00
DAV:   2    -0.804326621461E+02   -0.16579E+01   -0.20012E+01   128   0.224E+01    0.376E+00
DAV:   3    -0.805207620262E+02   -0.88100E-01   -0.33534E+00   144   0.788E+00    0.498E+00
DAV:   4    -0.802854090881E+02    0.23535E+00   -0.24470E+00   144   0.493E+00    0.200E+00
DAV:   5    -0.802554014371E+02    0.30008E-01   -0.63587E-01   136   0.283E+00    0.114E+00
DAV:   6    -0.802508063409E+02    0.45951E-02   -0.15197E-01   136   0.174E+00    0.458E-01
DAV:   7    -0.802507992800E+02    0.70609E-05   -0.27264E-02   144   0.563E-01    0.249E-01
DAV:   8    -0.802509393053E+02   -0.14003E-03   -0.76392E-03   152   0.290E-01    0.104E-01
DAV:   9    -0.802515178941E+02   -0.57859E-03   -0.14534E-03   120   0.123E-01    0.842E-02
DAV:  10    -0.802520834914E+02   -0.56560E-03   -0.47849E-04    88   0.902E-02    0.331E-02
DAV:  11    -0.802523617502E+02   -0.27826E-03   -0.12797E-04    88   0.483E-02    0.146E-02
DAV:  12    -0.802526121470E+02   -0.25040E-03   -0.53801E-05    72   0.261E-02    0.791E-03
DAV:  13    -0.802529167911E+02   -0.30464E-03   -0.42352E-05    88   0.190E-02    0.579E-03
DAV:  14    -0.802531869623E+02   -0.27017E-03   -0.52611E-05    88   0.145E-02    0.461E-03
DAV:  15    -0.802534017825E+02   -0.21482E-03   -0.31644E-05    80   0.122E-02    0.269E-03
DAV:  16    -0.802534749564E+02   -0.73174E-04   -0.12733E-05    72   0.709E-03
  19 F= -.80253475E+02 E0= -.80214182E+02  d E =-.288174E+01
       N       E                     dE             d eps       ncg     rms          rms(c)
DAV:   1    -0.802497287824E+02    0.36730E-02   -0.30472E+00   112   0.166E+01    0.641E-01
DAV:   2    -0.803040543661E+02   -0.54326E-01   -0.55861E-01   136   0.343E+00    0.150E+00
DAV:   3    -0.802796392461E+02    0.24415E-01   -0.18512E-01   136   0.149E+00    0.479E-01
DAV:   4    -0.802807550240E+02   -0.11158E-02   -0.25695E-02   144   0.487E-01    0.276E-01
DAV:   5    -0.802808210624E+02   -0.66038E-04   -0.10801E-02   136   0.434E-01    0.198E-01
DAV:   6    -0.802810531022E+02   -0.23204E-03   -0.54847E-03   144   0.332E-01    0.122E-01
DAV:   7    -0.802808808308E+02    0.17227E-03   -0.18383E-03   128   0.152E-01    0.391E-02
DAV:   8    -0.802809311435E+02   -0.50313E-04   -0.14541E-04    72   0.470E-02
  20 F= -.80280931E+02 E0= -.80240643E+02  d E =-.290919E+01
       N       E                     dE             d eps       ncg     rms          rms(c)
DAV:   1    -0.808241304618E+02   -0.54325E+00   -0.15442E+01   112   0.370E+01    0.122E+00
DAV:   2    -0.810105366355E+02   -0.18641E+00   -0.23219E+00   112   0.698E+00    0.151E+00
DAV:   3    -0.809921498903E+02    0.18387E-01   -0.50918E-01   144   0.252E+00    0.135E+00
DAV:   4    -0.809754645934E+02    0.16685E-01   -0.11859E-01   144   0.123E+00    0.479E-01
DAV:   5    -0.809765471396E+02   -0.10825E-02   -0.25986E-02   144   0.679E-01    0.326E-01
DAV:   6    -0.809777495125E+02   -0.12024E-02   -0.15455E-02   144   0.600E-01    0.258E-01
DAV:   7    -0.809769388940E+02    0.81062E-03   -0.62830E-03   136   0.342E-01    0.849E-02
DAV:   8    -0.809771231610E+02   -0.18427E-03   -0.10608E-03   128   0.109E-01    0.369E-02
DAV:   9    -0.809772114663E+02   -0.88305E-04   -0.63948E-05    72   0.403E-02
  21 F= -.80977211E+02 E0= -.80936607E+02  d E =-.696280E+00
       N       E                     dE             d eps       ncg     rms          rms(c)
DAV:   1    -0.806842794449E+02    0.29284E+00   -0.14749E+02   112   0.106E+02    0.422E+00
DAV:   2    -0.822433709363E+02   -0.15591E+01   -0.19668E+01   104   0.220E+01    0.299E+00
DAV:   3    -0.822272846100E+02    0.16086E-01   -0.29552E+00   144   0.666E+00    0.358E+00
DAV:   4    -0.821016654218E+02    0.12562E+00   -0.12002E+00   144   0.418E+00    0.156E+00
DAV:   5    -0.820936391880E+02    0.80262E-02   -0.27267E-01   152   0.208E+00    0.976E-01
DAV:   6    -0.820952538797E+02   -0.16147E-02   -0.17055E-01   136   0.215E+00    0.660E-01
DAV:   7    -0.820904343521E+02    0.48195E-02   -0.59177E-02   136   0.949E-01    0.198E-01
DAV:   8    -0.820912105575E+02   -0.77621E-03   -0.83327E-03   136   0.282E-01    0.947E-02
DAV:   9    -0.820919183103E+02   -0.70775E-03   -0.61647E-04   120   0.114E-01    0.817E-02
DAV:  10    -0.820924773475E+02   -0.55904E-03   -0.32261E-04    88   0.836E-02    0.251E-02
DAV:  11    -0.820928405785E+02   -0.36323E-03   -0.92443E-05    88   0.372E-02    0.963E-03
DAV:  12    -0.820931890529E+02   -0.34847E-03   -0.49614E-05    80   0.232E-02    0.713E-03
DAV:  13    -0.820934890269E+02   -0.29997E-03   -0.39851E-05    88   0.165E-02    0.496E-03
DAV:  14    -0.820937837286E+02   -0.29470E-03   -0.52787E-05    80   0.151E-02    0.324E-03
DAV:  15    -0.820939129463E+02   -0.12922E-03   -0.28341E-05    80   0.108E-02    0.176E-03
DAV:  16    -0.820939744752E+02   -0.61529E-04   -0.10686E-05    72   0.775E-03
  22 F= -.82093974E+02 E0= -.82050920E+02  d E =-.181304E+01
       N       E                     dE             d eps       ncg     rms          rms(c)
DAV:   1    -0.828283285615E+02   -0.73442E+00   -0.20598E+01   112   0.356E+01    0.149E+00
DAV:   2    -0.830380880920E+02   -0.20976E+00   -0.24463E+00   128   0.772E+00    0.307E+00
DAV:   3    -0.829477766092E+02    0.90311E-01   -0.10370E+00   136   0.400E+00    0.123E+00
DAV:   4    -0.829315976006E+02    0.16179E-01   -0.22385E-01   128   0.139E+00    0.509E-01
DAV:   5    -0.829308720383E+02    0.72556E-03   -0.31244E-02   128   0.723E-01    0.254E-01
DAV:   6    -0.829325199178E+02   -0.16479E-02   -0.15502E-02   152   0.564E-01    0.244E-01
DAV:   7    -0.829316323637E+02    0.88755E-03   -0.63994E-03   136   0.402E-01    0.660E-02
DAV:   8    -0.829318531523E+02   -0.22079E-03   -0.72095E-04   120   0.109E-01    0.420E-02
DAV:   9    -0.829319339318E+02   -0.80780E-04   -0.12228E-04    72   0.452E-02
  23 F= -.82931934E+02 E0= -.82885034E+02  d E =-.837959E+00
       N       E                     dE             d eps       ncg     rms          rms(c)
DAV:   1    -0.834076303404E+02   -0.47578E+00   -0.18739E+02   112   0.104E+02    0.429E+00
DAV:   2    -0.849549482129E+02   -0.15473E+01   -0.20040E+01   128   0.227E+01    0.809E+00
DAV:   3    -0.846417023500E+02    0.31325E+00   -0.93998E+00   144   0.111E+01    0.412E+00
DAV:   4    -0.843863692143E+02    0.25533E+00   -0.16675E+00   128   0.342E+00    0.157E+00
DAV:   5    -0.843589035695E+02    0.27466E-01   -0.22616E-01   128   0.179E+00    0.733E-01
DAV:   6    -0.843658320854E+02   -0.69285E-02   -0.61077E-02   136   0.983E-01    0.495E-01
DAV:   7    -0.843669411107E+02   -0.11090E-02   -0.31704E-02   144   0.842E-01    0.361E-01
DAV:   8    -0.843661315851E+02    0.80953E-03   -0.12526E-02   144   0.554E-01    0.109E-01
DAV:   9    -0.843669019365E+02   -0.77035E-03   -0.12051E-03   128   0.131E-01    0.765E-02
DAV:  10    -0.843673325202E+02   -0.43058E-03   -0.24552E-04    80   0.666E-02    0.404E-02
DAV:  11    -0.843678039890E+02   -0.47147E-03   -0.10064E-04    72   0.413E-02    0.164E-02
DAV:  12    -0.843682843122E+02   -0.48032E-03   -0.75750E-05    72   0.275E-02    0.807E-03
DAV:  13    -0.843688919099E+02   -0.60760E-03   -0.90670E-05    80   0.212E-02    0.678E-03
DAV:  14    -0.843691650175E+02   -0.27311E-03   -0.35039E-05    72   0.138E-02    0.508E-03
DAV:  15    -0.843693926682E+02   -0.22765E-03   -0.39640E-05    72   0.122E-02    0.230E-03
DAV:  16    -0.843694683000E+02   -0.75632E-04   -0.11531E-05    72   0.786E-03
  24 F= -.84369468E+02 E0= -.84315583E+02  d E =-.227549E+01
       N       E                     dE             d eps       ncg     rms          rms(c)
DAV:   1    -0.843537862135E+02    0.15606E-01   -0.20823E+01   104   0.356E+01    0.149E+00
DAV:   2    -0.844796054504E+02   -0.12582E+00   -0.20391E+00   128   0.717E+00    0.164E+00
DAV:   3    -0.844841448733E+02   -0.45394E-02   -0.67509E-01   144   0.296E+00    0.175E+00
DAV:   4    -0.844478525887E+02    0.36292E-01   -0.30415E-01   144   0.152E+00    0.655E-01
DAV:   5    -0.844463136616E+02    0.15389E-02   -0.26625E-02   128   0.730E-01    0.219E-01
DAV:   6    -0.844473827768E+02   -0.10691E-02   -0.56011E-03   128   0.308E-01    0.908E-02
DAV:   7    -0.844475867726E+02   -0.20400E-03   -0.97336E-04   136   0.134E-01    0.490E-02
DAV:   8    -0.844477048361E+02   -0.11806E-03   -0.36326E-04   112   0.967E-02    0.457E-02
DAV:   9    -0.844477251820E+02   -0.20346E-04   -0.17225E-04    88   0.699E-02
  25 F= -.84447725E+02 E0= -.84394285E+02  d E =-.235375E+01
       N       E                     dE             d eps       ncg     rms          rms(c)
DAV:   1    -0.849568283483E+02   -0.50912E+00   -0.36542E+01   112   0.501E+01    0.184E+00
DAV:   2    -0.852143592090E+02   -0.25753E+00   -0.35290E+00   112   0.996E+00    0.168E+00
DAV:   3    -0.852485633095E+02   -0.34204E-01   -0.96203E-01   152   0.359E+00    0.217E+00
DAV:   4    -0.851929630403E+02    0.55600E-01   -0.49837E-01   144   0.244E+00    0.830E-01
DAV:   5    -0.851917456641E+02    0.12174E-02   -0.62728E-02   136   0.111E+00    0.414E-01
DAV:   6    -0.851938567568E+02   -0.21111E-02   -0.46886E-02   144   0.106E+00    0.390E-01
DAV:   7    -0.851917218741E+02    0.21349E-02   -0.13760E-02   144   0.504E-01    0.109E-01
DAV:   8    -0.851920644952E+02   -0.34262E-03   -0.11193E-03   136   0.125E-01    0.428E-02
DAV:   9    -0.851923240260E+02   -0.25953E-03   -0.14018E-04    80   0.519E-02    0.266E-02
DAV:  10    -0.851925292440E+02   -0.20522E-03   -0.54379E-05    80   0.319E-02    0.123E-02
DAV:  11    -0.851927322186E+02   -0.20297E-03   -0.27983E-05    72   0.204E-02    0.552E-03
DAV:  12    -0.851929889437E+02   -0.25673E-03   -0.31001E-05    80   0.139E-02    0.418E-03
DAV:  13    -0.851931833961E+02   -0.19445E-03   -0.23039E-05    72   0.111E-02    0.268E-03
DAV:  14    -0.851932928705E+02   -0.10947E-03   -0.12681E-05    72   0.784E-03    0.132E-03
DAV:  15    -0.851933555608E+02   -0.62690E-04   -0.12919E-05    64   0.638E-03
  26 F= -.85193356E+02 E0= -.85141451E+02  d E =-.745630E+00
       N       E                     dE             d eps       ncg     rms          rms(c)
DAV:   1    -0.849274640051E+02    0.26583E+00   -0.13759E+02   112   0.954E+01    0.342E+00
DAV:   2    -0.859445841950E+02   -0.10171E+01   -0.13071E+01    96   0.198E+01    0.350E+00
DAV:   3    -0.860410583499E+02   -0.96474E-01   -0.37042E+00   152   0.704E+00    0.362E+00
DAV:   4    -0.858607082410E+02    0.18035E+00   -0.12976E+00   144   0.363E+00    0.141E+00
DAV:   5    -0.858625069009E+02   -0.17987E-02   -0.28007E-01   136   0.200E+00    0.108E+00
DAV:   6    -0.858557445187E+02    0.67624E-02   -0.26233E-01   136   0.185E+00    0.706E-01
DAV:   7    -0.858498246282E+02    0.59199E-02   -0.68856E-02   144   0.917E-01    0.264E-01
DAV:   8    -0.858497980154E+02    0.26613E-04   -0.54031E-03   144   0.275E-01    0.923E-02
DAV:   9    -0.858504020828E+02   -0.60407E-03   -0.85552E-04   128   0.126E-01    0.526E-02
DAV:  10    -0.858506678128E+02   -0.26573E-03   -0.13681E-04    80   0.599E-02    0.259E-02
DAV:  11    -0.858508983586E+02   -0.23055E-03   -0.77027E-05    88   0.360E-02    0.889E-03
DAV:  12    -0.858511229424E+02   -0.22458E-03   -0.26102E-05    72   0.197E-02    0.495E-03
DAV:  13    -0.858513346087E+02   -0.21167E-03   -0.25134E-05    80   0.130E-02    0.377E-03
DAV:  14    -0.858515366440E+02   -0.20204E-03   -0.27597E-05    72   0.108E-02    0.250E-03
DAV:  15    -0.858516277726E+02   -0.91129E-04   -0.11451E-05    72   0.786E-03
  27 F= -.85851628E+02 E0= -.85800967E+02  d E =-.140390E+01
       N       E                     dE             d eps       ncg     rms          rms(c)
DAV:   1    -0.866602902737E+02   -0.80875E+00   -0.42830E+01   104   0.532E+01    0.199E+00
DAV:   2    -0.871554063728E+02   -0.49512E+00   -0.56600E+00   128   0.114E+01    0.462E+00
DAV:   3    -0.869430053961E+02    0.21240E+00   -0.18728E+00   144   0.515E+00    0.157E+00
DAV:   4    -0.869390636717E+02    0.39417E-02   -0.48588E-01   144   0.284E+00    0.126E+00
DAV:   5    -0.869205299483E+02    0.18534E-01   -0.14007E-01   128   0.157E+00    0.579E-01
DAV:   6    -0.869222712264E+02   -0.17413E-02   -0.52541E-02   136   0.758E-01    0.406E-01
DAV:   7    -0.869195477599E+02    0.27235E-02   -0.14497E-02   136   0.360E-01    0.114E-01
DAV:   8    -0.869201313118E+02   -0.58355E-03   -0.18584E-03   136   0.151E-01    0.690E-02
DAV:   9    -0.869202956524E+02   -0.16434E-03   -0.22005E-04    80   0.669E-02    0.418E-02
DAV:  10    -0.869203856169E+02   -0.89965E-04   -0.10737E-04    80   0.438E-02
  28 F= -.86920386E+02 E0= -.86867539E+02  d E =-.106876E+01
       N       E                     dE             d eps       ncg     rms          rms(c)
DAV:   1    -0.870141859669E+02   -0.93890E-01   -0.76290E+01   104   0.703E+01    0.262E+00
DAV:   2    -0.878462889344E+02   -0.83210E+00   -0.94494E+00   120   0.150E+01    0.615E+00
DAV:   3    -0.875178124414E+02    0.32848E+00   -0.33444E+00   144   0.672E+00    0.216E+00
DAV:   4    -0.875044981090E+02    0.13314E-01   -0.89989E-01   144   0.306E+00    0.167E+00
DAV:   5    -0.874727703476E+02    0.31728E-01   -0.33142E-01   136   0.213E+00    0.851E-01
DAV:   6    -0.874722500076E+02    0.52034E-03   -0.16403E-01   144   0.109E+00    0.547E-01
DAV:   7    -0.874670699372E+02    0.51801E-02   -0.36368E-02   128   0.481E-01    0.153E-01
DAV:   8    -0.874680681019E+02   -0.99816E-03   -0.30991E-03   120   0.192E-01    0.736E-02
DAV:   9    -0.874683713726E+02   -0.30327E-03   -0.38002E-04    96   0.830E-02    0.499E-02
DAV:  10    -0.874685767960E+02   -0.20542E-03   -0.10619E-04    80   0.462E-02    0.272E-02
DAV:  11    -0.874687131041E+02   -0.13631E-03   -0.42481E-05    64   0.257E-02    0.994E-03
DAV:  12    -0.874688619468E+02   -0.14884E-03   -0.29466E-05    80   0.158E-02    0.407E-03
DAV:  13    -0.874690249467E+02   -0.16300E-03   -0.21206E-05    72   0.111E-02    0.303E-03
DAV:  14    -0.874691398166E+02   -0.11487E-03   -0.16716E-05    80   0.893E-03    0.226E-03
DAV:  15    -0.874692071741E+02   -0.67358E-04   -0.92811E-06    64   0.680E-03
  29 F= -.87469207E+02 E0= -.87414438E+02  d E =-.161758E+01
       N       E                     dE             d eps       ncg     rms          rms(c)
DAV:   1    -0.881739138125E+02   -0.70477E+00   -0.15115E+01   104   0.250E+01    0.130E+00
DAV:   2    -0.882146147428E+02   -0.40701E-01   -0.10610E+00   112   0.482E+00    0.121E+00
DAV:   3    -0.881989538571E+02    0.15661E-01   -0.29820E-01   136   0.219E+00    0.846E-01
DAV:   4    -0.881941462989E+02    0.48076E-02   -0.15224E-01   128   0.151E+00    0.722E-01
DAV:   5    -0.881910964656E+02    0.30498E-02   -0.14248E-01   144   0.102E+00    0.716E-01
DAV:   6    -0.881873940061E+02    0.37025E-02   -0.56553E-02   136   0.834E-01    0.330E-01
DAV:   7    -0.881866850199E+02    0.70899E-03   -0.11281E-02   136   0.295E-01    0.717E-02
DAV:   8    -0.881868937405E+02   -0.20872E-03   -0.48209E-04   112   0.856E-02    0.314E-02
DAV:   9    -0.881869713550E+02   -0.77614E-04   -0.62991E-05    72   0.358E-02
  30 F= -.88186971E+02 E0= -.88131843E+02  d E =-.717764E+00
       N       E                     dE             d eps       ncg     rms          rms(c)
DAV:   1    -0.885990736209E+02   -0.41218E+00   -0.76123E+01   104   0.563E+01    0.276E+00
DAV:   2    -0.888586650229E+02   -0.25959E+00   -0.52310E+00   120   0.110E+01    0.311E+00
DAV:   3    -0.888335403711E+02    0.25125E-01   -0.21836E+00   136   0.540E+00    0.287E+00
DAV:   4    -0.887743817069E+02    0.59159E-01   -0.13053E+00   152   0.329E+00    0.207E+00
DAV:   5    -0.887254823961E+02    0.48899E-01   -0.60762E-01   136   0.249E+00    0.108E+00
DAV:   6    -0.887157644333E+02    0.97180E-02   -0.15836E-01   136   0.134E+00    0.378E-01
DAV:   7    -0.887145340801E+02    0.12304E-02   -0.21164E-02   120   0.494E-01    0.138E-01
DAV:   8    -0.887154421408E+02   -0.90806E-03   -0.18153E-03   136   0.158E-01    0.563E-02
DAV:   9    -0.887157780385E+02   -0.33590E-03   -0.33155E-04    88   0.694E-02    0.260E-02
DAV:  10    -0.887161527423E+02   -0.37470E-03   -0.13556E-04    80   0.419E-02    0.143E-02
DAV:  11    -0.887164330440E+02   -0.28030E-03   -0.39968E-05    64   0.248E-02    0.101E-02
DAV:  12    -0.887168386620E+02   -0.40562E-03   -0.76505E-05    72   0.222E-02    0.542E-03
DAV:  13    -0.887171279643E+02   -0.28930E-03   -0.45440E-05    72   0.156E-02    0.341E-03
DAV:  14    -0.887172861460E+02   -0.15818E-03   -0.19930E-05    72   0.106E-02    0.242E-03
DAV:  15    -0.887174118257E+02   -0.12568E-03   -0.28612E-05    72   0.939E-03    0.140E-03
DAV:  16    -0.887174611004E+02   -0.49275E-04   -0.75177E-06    64   0.627E-03
  31 F= -.88717461E+02 E0= -.88670194E+02  d E =-.124825E+01
       N       E                     dE             d eps       ncg     rms          rms(c)
DAV:   1    -0.892265888750E+02   -0.50918E+00   -0.26895E+01   112   0.399E+01    0.156E+00
DAV:   2    -0.893353655704E+02   -0.10878E+00   -0.19924E+00   112   0.723E+00    0.946E-01
DAV:   3    -0.893328577615E+02    0.25078E-02   -0.26429E-01   152   0.187E+00    0.936E-01
DAV:   4    -0.893416957026E+02   -0.88379E-02   -0.30541E-01   144   0.164E+00    0.139E+00
DAV:   5    -0.893219639799E+02    0.19732E-01   -0.13504E-01   144   0.125E+00    0.239E-01
DAV:   6    -0.893253575048E+02   -0.33935E-02   -0.21782E-02   136   0.549E-01    0.286E-01
DAV:   7    -0.893242741136E+02    0.10834E-02   -0.79010E-03   136   0.365E-01    0.699E-02
DAV:   8    -0.893245849930E+02   -0.31088E-03   -0.52519E-04   104   0.889E-02    0.437E-02
DAV:   9    -0.893247555787E+02   -0.17059E-03   -0.10125E-04    72   0.552E-02    0.149E-02
DAV:  10    -0.893249049042E+02   -0.14933E-03   -0.48774E-05    80   0.280E-02    0.693E-03
DAV:  11    -0.893250508543E+02   -0.14595E-03   -0.16524E-05    72   0.174E-02    0.411E-03
DAV:  12    -0.893251838254E+02   -0.13297E-03   -0.18472E-05    64   0.108E-02    0.277E-03
DAV:  13    -0.893253427491E+02   -0.15892E-03   -0.24784E-05    72   0.103E-02    0.169E-03
DAV:  14    -0.893253980564E+02   -0.55307E-04   -0.70037E-06    56   0.683E-03
  32 F= -.89325398E+02 E0= -.89297509E+02  d E =-.607937E+00
       N       E                     dE             d eps       ncg     rms          rms(c)
DAV:   1    -0.893950689754E+02   -0.69726E-01   -0.39379E+01   112   0.480E+01    0.172E+00
DAV:   2    -0.895701038396E+02   -0.17503E+00   -0.27381E+00    96   0.876E+00    0.113E+00
DAV:   3    -0.895813025807E+02   -0.11199E-01   -0.40090E-01   152   0.252E+00    0.149E+00
DAV:   4    -0.895654063283E+02    0.15896E-01   -0.38736E-01   136   0.206E+00    0.106E+00
DAV:   5    -0.895582461008E+02    0.71602E-02   -0.11149E-01   136   0.122E+00    0.476E-01
DAV:   6    -0.895566210202E+02    0.16251E-02   -0.37491E-02   136   0.789E-01    0.212E-01
DAV:   7    -0.895566198163E+02    0.12039E-05   -0.44989E-03   128   0.291E-01    0.601E-02
DAV:   8    -0.895568623430E+02   -0.24253E-03   -0.28948E-04    80   0.822E-02    0.301E-02
DAV:   9    -0.895570714569E+02   -0.20911E-03   -0.10651E-04    72   0.462E-02    0.106E-02
DAV:  10    -0.895572511910E+02   -0.17973E-03   -0.37721E-05    72   0.282E-02    0.692E-03
DAV:  11    -0.895574108411E+02   -0.15965E-03   -0.25963E-05    64   0.167E-02    0.458E-03
DAV:  12    -0.895575996013E+02   -0.18876E-03   -0.28469E-05    72   0.138E-02    0.270E-03
DAV:  13    -0.895577213724E+02   -0.12177E-03   -0.18626E-05    64   0.103E-02    0.196E-03
DAV:  14    -0.895577757266E+02   -0.54354E-04   -0.12976E-05    64   0.809E-03
  33 F= -.89557776E+02 E0= -.89551903E+02  d E =-.840315E+00
       N       E                     dE             d eps       ncg     rms          rms(c)
DAV:   1    -0.899386222072E+02   -0.38090E+00   -0.25044E+01   112   0.421E+01    0.167E+00
DAV:   2    -0.901999472766E+02   -0.26133E+00   -0.31585E+00   120   0.832E+00    0.297E+00
DAV:   3    -0.900910449540E+02    0.10890E+00   -0.91225E-01   136   0.386E+00    0.996E-01
DAV:   4    -0.900890532776E+02    0.19917E-02   -0.17097E-01   144   0.181E+00    0.782E-01
DAV:   5    -0.900823707784E+02    0.66825E-02   -0.71786E-02   136   0.125E+00    0.276E-01
DAV:   6    -0.900827298696E+02   -0.35909E-03   -0.11754E-02   144   0.437E-01    0.142E-01
DAV:   7    -0.900828354428E+02   -0.10557E-03   -0.14839E-03   120   0.169E-01    0.459E-02
DAV:   8    -0.900829428585E+02   -0.10742E-03   -0.16619E-04    80   0.574E-02    0.217E-02
DAV:   9    -0.900829965892E+02   -0.53731E-04   -0.47851E-05    64   0.339E-02
  34 F= -.90082997E+02 E0= -.90081932E+02  d E =-.525221E+00
       N       E                     dE             d eps       ncg     rms          rms(c)
DAV:   1    -0.901182307978E+02   -0.35288E-01   -0.32781E+01   112   0.478E+01    0.200E+00
DAV:   2    -0.904379232554E+02   -0.31969E+00   -0.39930E+00   120   0.969E+00    0.302E+00
DAV:   3    -0.903236555109E+02    0.11427E+00   -0.96874E-01   128   0.436E+00    0.120E+00
DAV:   4    -0.903202805124E+02    0.33750E-02   -0.25566E-01   136   0.221E+00    0.957E-01
DAV:   5    -0.903094386821E+02    0.10842E-01   -0.10223E-01   136   0.151E+00    0.289E-01
DAV:   6    -0.903100215788E+02   -0.58290E-03   -0.12546E-02   128   0.470E-01    0.152E-01
DAV:   7    -0.903102156538E+02   -0.19408E-03   -0.17455E-03   136   0.192E-01    0.500E-02
DAV:   8    -0.903103717815E+02   -0.15613E-03   -0.18378E-04    80   0.595E-02    0.245E-02
DAV:   9    -0.903104773643E+02   -0.10558E-03   -0.62108E-05    72   0.350E-02    0.967E-03
DAV:  10    -0.903105604104E+02   -0.83046E-04   -0.24277E-05    64   0.205E-02
  35 F= -.90310560E+02 E0= -.90310151E+02  d E =-.752785E+00
       N       E                     dE             d eps       ncg     rms          rms(c)
DAV:   1    -0.904817436581E+02   -0.17127E+00   -0.12305E+01   112   0.293E+01    0.980E-01
DAV:   2    -0.905601274893E+02   -0.78384E-01   -0.10418E+00    96   0.536E+00    0.882E-01
DAV:   3    -0.905626144391E+02   -0.24869E-02   -0.20699E-01   152   0.197E+00    0.944E-01
DAV:   4    -0.905528657813E+02    0.97487E-02   -0.87892E-02   136   0.119E+00    0.370E-01
DAV:   5    -0.905535590541E+02   -0.69327E-03   -0.31169E-02   136   0.835E-01    0.309E-01
DAV:   6    -0.905524967947E+02    0.10623E-02   -0.11112E-02   136   0.500E-01    0.667E-02
DAV:   7    -0.905527159735E+02   -0.21918E-03   -0.74521E-04   120   0.122E-01    0.298E-02
DAV:   8    -0.905527793502E+02   -0.63377E-04   -0.62824E-05    72   0.446E-02
  36 F= -.90552779E+02 E0= -.90552468E+02  d E =-.242219E+00
       N       E                     dE             d eps       ncg     rms          rms(c)
DAV:   1    -0.905710588819E+02   -0.18343E-01   -0.57454E+00   112   0.201E+01    0.678E-01
DAV:   2    -0.906075010632E+02   -0.36442E-01   -0.49390E-01   104   0.367E+00    0.651E-01
DAV:   3    -0.906072543015E+02    0.24676E-03   -0.10230E-01   144   0.137E+00    0.629E-01
DAV:   4    -0.906032473872E+02    0.40069E-02   -0.38950E-02   136   0.811E-01    0.257E-01
DAV:   5    -0.906036076336E+02   -0.36025E-03   -0.15159E-02   136   0.607E-01    0.211E-01
DAV:   6    -0.906031793339E+02    0.42830E-03   -0.48542E-03   136   0.334E-01    0.433E-02
DAV:   7    -0.906033075266E+02   -0.12819E-03   -0.27470E-04    80   0.782E-02    0.193E-02
DAV:   8    -0.906033563902E+02   -0.48864E-04   -0.54390E-05    72   0.379E-02
  37 F= -.90603356E+02 E0= -.90603097E+02  d E =-.292796E+00
       N       E                     dE             d eps       ncg     rms          rms(c)
DAV:   1    -0.906293721803E+02   -0.26065E-01   -0.13973E+01   120   0.380E+01    0.105E+00
DAV:   2    -0.908021607878E+02   -0.17279E+00   -0.19963E+00    96   0.738E+00    0.103E+00
DAV:   3    -0.908014901532E+02    0.67063E-03   -0.23618E-01   152   0.267E+00    0.881E-01
DAV:   4    -0.907955749612E+02    0.59152E-02   -0.90284E-02   136   0.137E+00    0.506E-01
DAV:   5    -0.907959547682E+02   -0.37981E-03   -0.33652E-02   136   0.783E-01    0.324E-01
DAV:   6    -0.907963070075E+02   -0.35224E-03   -0.98178E-03   136   0.487E-01    0.688E-02
DAV:   7    -0.907966209020E+02   -0.31389E-03   -0.97030E-04   112   0.159E-01    0.311E-02
DAV:   8    -0.907967115635E+02   -0.90662E-04   -0.73027E-05    80   0.562E-02
  38 F= -.90796712E+02 E0= -.90796412E+02  d E =-.193355E+00
       N       E                     dE             d eps       ncg     rms          rms(c)
DAV:   1    -0.905218356862E+02    0.27479E+00   -0.31234E+01   112   0.564E+01    0.159E+00
DAV:   2    -0.909301729889E+02   -0.40834E+00   -0.46834E+00    96   0.114E+01    0.170E+00
DAV:   3    -0.909292920129E+02    0.88098E-03   -0.67583E-01   152   0.379E+00    0.141E+00
DAV:   4    -0.909129133618E+02    0.16379E-01   -0.21673E-01   136   0.181E+00    0.764E-01
DAV:   5    -0.909123879697E+02    0.52539E-03   -0.68454E-02   136   0.110E+00    0.484E-01
DAV:   6    -0.909132699709E+02   -0.88200E-03   -0.19721E-02   136   0.714E-01    0.946E-02
DAV:   7    -0.909139683734E+02   -0.69840E-03   -0.19721E-03   128   0.221E-01    0.451E-02
DAV:   8    -0.909141671175E+02   -0.19874E-03   -0.14163E-04    88   0.819E-02    0.200E-02
DAV:   9    -0.909143066460E+02   -0.13953E-03   -0.55219E-05    80   0.367E-02    0.841E-03
DAV:  10    -0.909144332949E+02   -0.12665E-03   -0.22981E-05    88   0.228E-02    0.389E-03
DAV:  11    -0.909145367803E+02   -0.10349E-03   -0.12108E-05    72   0.119E-02    0.244E-03
DAV:  12    -0.909146309923E+02   -0.94212E-04   -0.11545E-05    80   0.909E-03
  39 F= -.90914631E+02 E0= -.90914053E+02  d E =-.311275E+00
       N       E                     dE             d eps       ncg     rms          rms(c)
DAV:   1    -0.909298826835E+02   -0.15346E-01   -0.20235E+01   112   0.451E+01    0.116E+00
DAV:   2    -0.911591880463E+02   -0.22931E+00   -0.25923E+00    96   0.831E+00    0.107E+00
DAV:   3    -0.911665903846E+02   -0.74023E-02   -0.34320E-01   152   0.249E+00    0.116E+00
DAV:   4    -0.911513190665E+02    0.15271E-01   -0.10768E-01   136   0.162E+00    0.404E-01
DAV:   5    -0.911549556243E+02   -0.36366E-02   -0.37668E-02   144   0.857E-01    0.437E-01
DAV:   6    -0.911536208178E+02    0.13348E-02   -0.14452E-02   128   0.594E-01    0.971E-02
DAV:   7    -0.911540871306E+02   -0.46631E-03   -0.16777E-03   136   0.168E-01    0.440E-02
DAV:   8    -0.911542331451E+02   -0.14601E-03   -0.94888E-05    72   0.551E-02    0.251E-02
DAV:   9    -0.911543710615E+02   -0.13792E-03   -0.58534E-05    72   0.339E-02    0.805E-03
DAV:  10    -0.911544651547E+02   -0.94093E-04   -0.17425E-05    64   0.204E-02
  40 F= -.91154465E+02 E0= -.91153323E+02  d E =-.239834E+00
       N       E                     dE             d eps       ncg     rms          rms(c)
DAV:   1    -0.893732638535E+02    0.17811E+01   -0.19094E+02   112   0.126E+02    0.398E+00
DAV:   2    -0.918040765966E+02   -0.24308E+01   -0.26356E+01    96   0.273E+01    0.478E+00
DAV:   3    -0.917387526452E+02    0.65324E-01   -0.45838E+00   144   0.960E+00    0.317E+00
DAV:   4    -0.916336633481E+02    0.10509E+00   -0.10411E+00   136   0.429E+00    0.156E+00
DAV:   5    -0.916151204999E+02    0.18543E-01   -0.26754E-01   136   0.231E+00    0.106E+00
DAV:   6    -0.916175817129E+02   -0.24612E-02   -0.54201E-02   128   0.122E+00    0.393E-01
DAV:   7    -0.916188131798E+02   -0.12315E-02   -0.15477E-02   136   0.536E-01    0.114E-01
DAV:   8    -0.916196110580E+02   -0.79788E-03   -0.19471E-03   152   0.185E-01    0.644E-02
DAV:   9    -0.916202836482E+02   -0.67259E-03   -0.43298E-04    80   0.861E-02    0.319E-02
DAV:  10    -0.916209093811E+02   -0.62573E-03   -0.16039E-04    88   0.485E-02    0.145E-02
DAV:  11    -0.916214514580E+02   -0.54208E-03   -0.86258E-05    80   0.302E-02    0.858E-03
DAV:  12    -0.916219850093E+02   -0.53355E-03   -0.90158E-05    88   0.233E-02    0.607E-03
DAV:  13    -0.916223820771E+02   -0.39707E-03   -0.85388E-05    88   0.195E-02    0.359E-03
DAV:  14    -0.916225247374E+02   -0.14266E-03   -0.18239E-05    72   0.111E-02    0.190E-03
DAV:  15    -0.916226212695E+02   -0.96532E-04   -0.19765E-05    80   0.843E-03
  41 F= -.91622621E+02 E0= -.91617103E+02  d E =-.707990E+00
       N       E                     dE             d eps       ncg     rms          rms(c)
DAV:   1    -0.911895972154E+02    0.43293E+00   -0.42268E+01   112   0.636E+01    0.175E+00
DAV:   2    -0.916424453419E+02   -0.45285E+00   -0.53611E+00    96   0.122E+01    0.118E+00
DAV:   3    -0.916653567354E+02   -0.22911E-01   -0.47730E-01   152   0.326E+00    0.151E+00
DAV:   4    -0.916388523635E+02    0.26504E-01   -0.21259E-01   136   0.198E+00    0.598E-01
DAV:   5    -0.916428547378E+02   -0.40024E-02   -0.54233E-02   136   0.113E+00    0.498E-01
DAV:   6    -0.916407447391E+02    0.21100E-02   -0.26747E-02   136   0.798E-01    0.139E-01
DAV:   7    -0.916413620890E+02   -0.61735E-03   -0.37218E-03   128   0.253E-01    0.680E-02
DAV:   8    -0.916416103071E+02   -0.24822E-03   -0.34984E-04    88   0.884E-02    0.410E-02
DAV:   9    -0.916418164229E+02   -0.20612E-03   -0.13266E-04    72   0.546E-02    0.123E-02
DAV:  10    -0.916419401967E+02   -0.12377E-03   -0.39024E-05    72   0.274E-02    0.664E-03
DAV:  11    -0.916420955141E+02   -0.15532E-03   -0.23681E-05    72   0.180E-02    0.418E-03
DAV:  12    -0.916422342655E+02   -0.13875E-03   -0.25254E-05    80   0.121E-02    0.302E-03
DAV:  13    -0.916423443659E+02   -0.11010E-03   -0.14348E-05    72   0.878E-03    0.171E-03
DAV:  14    -0.916424067240E+02   -0.62358E-04   -0.11604E-05    72   0.675E-03
  42 F= -.91642407E+02 E0= -.91631945E+02  d E =-.727776E+00
       N       E                     dE             d eps       ncg     rms          rms(c)
DAV:   1    -0.915752169170E+02    0.67127E-01   -0.72938E+00   112   0.271E+01    0.688E-01
DAV:   2    -0.916542454472E+02   -0.79029E-01   -0.94506E-01    96   0.497E+00    0.428E-01
DAV:   3    -0.916545101774E+02   -0.26473E-03   -0.40088E-02   144   0.985E-01    0.276E-01
DAV:   4    -0.916560811813E+02   -0.15710E-02   -0.17235E-02   136   0.597E-01    0.378E-01
DAV:   5    -0.916550758686E+02    0.10053E-02   -0.15908E-02   136   0.558E-01    0.177E-01
DAV:   6    -0.916553669462E+02   -0.29108E-03   -0.56275E-03   136   0.325E-01    0.114E-01
DAV:   7    -0.916552422278E+02    0.12472E-03   -0.10552E-03   112   0.155E-01    0.248E-02
DAV:   8    -0.916553133672E+02   -0.71139E-04   -0.98023E-05    72   0.520E-02
  43 F= -.91655313E+02 E0= -.91647276E+02  d E =-.740682E+00
       N       E                     dE             d eps       ncg     rms          rms(c)
DAV:   1    -0.917098879112E+02   -0.54646E-01   -0.96004E+00   112   0.300E+01    0.815E-01
DAV:   2    -0.918018690734E+02   -0.91981E-01   -0.11272E+00    96   0.519E+00    0.511E-01
DAV:   3    -0.918026261275E+02   -0.75705E-03   -0.69186E-02   152   0.127E+00    0.444E-01
DAV:   4    -0.918018953653E+02    0.73076E-03   -0.29183E-02   136   0.768E-01    0.381E-01
DAV:   5    -0.918020000605E+02   -0.10470E-03   -0.17551E-02   144   0.708E-01    0.265E-01
DAV:   6    -0.918016534321E+02    0.34663E-03   -0.87347E-03   136   0.415E-01    0.818E-02
DAV:   7    -0.918017724827E+02   -0.11905E-03   -0.99454E-04   112   0.125E-01    0.287E-02
DAV:   8    -0.918018198730E+02   -0.47390E-04   -0.74199E-05    72   0.422E-02
  44 F= -.91801820E+02 E0= -.91791749E+02  d E =-.146507E+00
       N       E                     dE             d eps       ncg     rms          rms(c)
DAV:   1    -0.913866100842E+02    0.41516E+00   -0.65032E+01   112   0.747E+01    0.227E+00
DAV:   2    -0.919967925535E+02   -0.61018E+00   -0.74648E+00    96   0.140E+01    0.143E+00
DAV:   3    -0.920001717532E+02   -0.33792E-02   -0.54079E-01   152   0.360E+00    0.113E+00
DAV:   4    -0.919875630089E+02    0.12609E-01   -0.16143E-01   136   0.188E+00    0.680E-01
DAV:   5    -0.919967041779E+02   -0.91412E-02   -0.95405E-02   136   0.135E+00    0.886E-01
DAV:   6    -0.919880001708E+02    0.87040E-02   -0.67744E-02   136   0.137E+00    0.210E-01
DAV:   7    -0.919889284588E+02   -0.92829E-03   -0.51735E-03   128   0.276E-01    0.771E-02
DAV:   8    -0.919892852862E+02   -0.35683E-03   -0.49379E-04    88   0.942E-02    0.486E-02
DAV:   9    -0.919896295639E+02   -0.34428E-03   -0.14585E-04    80   0.625E-02    0.145E-02
DAV:  10    -0.919898325988E+02   -0.20303E-03   -0.48535E-05    72   0.295E-02    0.752E-03
DAV:  11    -0.919901163437E+02   -0.28374E-03   -0.49361E-05    80   0.217E-02    0.561E-03
DAV:  12    -0.919903496969E+02   -0.23335E-03   -0.32100E-05    72   0.159E-02    0.303E-03
DAV:  13    -0.919905126729E+02   -0.16298E-03   -0.37057E-05    80   0.116E-02    0.178E-03
DAV:  14    -0.919906028001E+02   -0.90127E-04   -0.12619E-05    72   0.841E-03
  45 F= -.91990603E+02 E0= -.91972681E+02  d E =-.335289E+00
       N       E                     dE             d eps       ncg     rms          rms(c)
DAV:   1    -0.921759062059E+02   -0.18539E+00   -0.67240E+00   120   0.256E+01    0.775E-01
DAV:   2    -0.922456262077E+02   -0.69720E-01   -0.87531E-01   112   0.485E+00    0.822E-01
DAV:   3    -0.922400638393E+02    0.55624E-02   -0.10800E-01   128   0.167E+00    0.516E-01
DAV:   4    -0.922386415128E+02    0.14223E-02   -0.34062E-02   144   0.868E-01    0.391E-01
DAV:   5    -0.922376390978E+02    0.10024E-02   -0.17334E-02   136   0.606E-01    0.209E-01
DAV:   6    -0.922377743566E+02   -0.13526E-03   -0.49771E-03   128   0.317E-01    0.632E-02
DAV:   7    -0.922378986848E+02   -0.12433E-03   -0.70233E-04   112   0.963E-02    0.283E-02
DAV:   8    -0.922379469729E+02   -0.48288E-04   -0.73425E-05    72   0.354E-02
  46 F= -.92237947E+02 E0= -.92218583E+02  d E =-.247344E+00
       N       E                     dE             d eps       ncg     rms          rms(c)
DAV:   1    -0.919593826581E+02    0.27852E+00   -0.60706E+01   112   0.751E+01    0.235E+00
DAV:   2    -0.926405732848E+02   -0.68119E+00   -0.82301E+00    96   0.154E+01    0.255E+00
DAV:   3    -0.925991573153E+02    0.41416E-01   -0.12575E+00   152   0.520E+00    0.144E+00
DAV:   4    -0.925839965370E+02    0.15161E-01   -0.22812E-01   144   0.244E+00    0.111E+00
DAV:   5    -0.925781863713E+02    0.58102E-02   -0.16223E-01   136   0.184E+00    0.792E-01
DAV:   6    -0.925741867367E+02    0.39996E-02   -0.56383E-02   136   0.111E+00    0.223E-01
DAV:   7    -0.925748850294E+02   -0.69829E-03   -0.61343E-03   128   0.328E-01    0.930E-02
DAV:   8    -0.925751862400E+02   -0.30121E-03   -0.11084E-03   120   0.130E-01    0.438E-02
DAV:   9    -0.925754084385E+02   -0.22220E-03   -0.15965E-04    72   0.713E-02    0.197E-02
DAV:  10    -0.925756456448E+02   -0.23721E-03   -0.84905E-05    80   0.369E-02    0.942E-03
DAV:  11    -0.925758381220E+02   -0.19248E-03   -0.22721E-05    72   0.234E-02    0.554E-03
DAV:  12    -0.925760809332E+02   -0.24281E-03   -0.36168E-05    80   0.148E-02    0.394E-03
DAV:  13    -0.925762867484E+02   -0.20582E-03   -0.26220E-05    72   0.124E-02    0.261E-03
DAV:  14    -0.925763915551E+02   -0.10481E-03   -0.20768E-05    80   0.922E-03    0.143E-03
DAV:  15    -0.925764583016E+02   -0.66747E-04   -0.74252E-06    72   0.629E-03
  47 F= -.92576458E+02 E0= -.92549164E+02  d E =-.585856E+00
       N       E                     dE             d eps       ncg     rms          rms(c)
DAV:   1    -0.926450021486E+02   -0.68611E-01   -0.13007E+01   120   0.396E+01    0.102E+00
DAV:   2    -0.928167068754E+02   -0.17170E+00   -0.19542E+00    96   0.724E+00    0.103E+00
DAV:   3    -0.928065864197E+02    0.10120E-01   -0.19455E-01   144   0.218E+00    0.524E-01
DAV:   4    -0.928041412208E+02    0.24452E-02   -0.28776E-02   136   0.832E-01    0.268E-01
DAV:   5    -0.928055544716E+02   -0.14133E-02   -0.57858E-03   136   0.443E-01    0.131E-01
DAV:   6    -0.928060352607E+02   -0.48079E-03   -0.43889E-03   152   0.384E-01    0.175E-01
DAV:   7    -0.928057935784E+02    0.24168E-03   -0.22617E-03   120   0.258E-01    0.442E-02
DAV:   8    -0.928058794771E+02   -0.85899E-04   -0.23685E-04    80   0.775E-02
  48 F= -.92805879E+02 E0= -.92777247E+02  d E =-.229421E+00
       N       E                     dE             d eps       ncg     rms          rms(c)
DAV:   1    -0.916404569582E+02    0.11653E+01   -0.12023E+02   120   0.113E+02    0.327E+00
DAV:   2    -0.933564415896E+02   -0.17160E+01   -0.18597E+01    96   0.233E+01    0.445E+00
DAV:   3    -0.931668612988E+02    0.18958E+00   -0.31325E+00   136   0.817E+00    0.159E+00
DAV:   4    -0.931413044882E+02    0.25557E-01   -0.22282E-01   136   0.260E+00    0.917E-01
DAV:   5    -0.931715050446E+02   -0.30201E-01   -0.20908E-01   136   0.241E+00    0.160E+00
DAV:   6    -0.931448826807E+02    0.26622E-01   -0.16954E-01   136   0.189E+00    0.276E-01
DAV:   7    -0.931477198801E+02   -0.28372E-02   -0.92820E-03   128   0.485E-01    0.901E-02
DAV:   8    -0.931482174793E+02   -0.49760E-03   -0.12640E-03   136   0.158E-01    0.717E-02
DAV:   9    -0.931484924167E+02   -0.27494E-03   -0.24400E-04    88   0.818E-02    0.392E-02
DAV:  10    -0.931487919961E+02   -0.29958E-03   -0.11830E-04    72   0.461E-02    0.119E-02
DAV:  11    -0.931490534143E+02   -0.26142E-03   -0.47951E-05    80   0.261E-02    0.702E-03
DAV:  12    -0.931493135734E+02   -0.26016E-03   -0.27493E-05    72   0.171E-02    0.470E-03
DAV:  13    -0.931495749506E+02   -0.26138E-03   -0.47784E-05    80   0.138E-02    0.281E-03
DAV:  14    -0.931497323612E+02   -0.15741E-03   -0.22722E-05    72   0.104E-02    0.182E-03
DAV:  15    -0.931498024588E+02   -0.70098E-04   -0.11841E-05    72   0.720E-03
  49 F= -.93149802E+02 E0= -.93118375E+02  d E =-.573344E+00
       N       E                     dE             d eps       ncg     rms          rms(c)
DAV:   1    -0.930255272652E+02    0.12421E+00   -0.33872E+01   120   0.643E+01    0.154E+00
DAV:   2    -0.934647551781E+02   -0.43923E+00   -0.47706E+00    96   0.115E+01    0.142E+00
DAV:   3    -0.934633949407E+02    0.13602E-02   -0.44236E-01   152   0.320E+00    0.974E-01
DAV:   4    -0.934531056706E+02    0.10289E-01   -0.85791E-02   128   0.159E+00    0.491E-01
DAV:   5    -0.934590657632E+02   -0.59601E-02   -0.49087E-02   144   0.139E+00    0.678E-01
DAV:   6    -0.934551720227E+02    0.38937E-02   -0.28044E-02   136   0.102E+00    0.993E-02
DAV:   7    -0.934558962286E+02   -0.72421E-03   -0.23038E-03   128   0.218E-01    0.511E-02
DAV:   8    -0.934559951149E+02   -0.98886E-04   -0.26097E-04    88   0.908E-02
  50 F= -.93455995E+02 E0= -.93425319E+02  d E =-.306193E+00
       N       E                     dE             d eps       ncg     rms          rms(c)
DAV:   1    -0.888627068054E+02    0.45932E+01   -0.33277E+02   120   0.173E+02    0.516E+00
DAV:   2    -0.940780951343E+02   -0.52154E+01   -0.52523E+01    96   0.391E+01    0.631E+00
DAV:   3    -0.939099812199E+02    0.16811E+00   -0.72416E+00   144   0.135E+01    0.249E+00
DAV:   4    -0.938437534625E+02    0.66228E-01   -0.61696E-01   128   0.407E+00    0.166E+00
DAV:   5    -0.938606107466E+02   -0.16857E-01   -0.32339E-01   136   0.322E+00    0.171E+00
DAV:   6    -0.938493674942E+02    0.11243E-01   -0.25461E-01   144   0.237E+00    0.701E-01
DAV:   7    -0.938474831433E+02    0.18844E-02   -0.35692E-02   136   0.114E+00    0.178E-01
DAV:   8    -0.938482733543E+02   -0.79021E-03   -0.65952E-03   160   0.409E-01    0.123E-01
DAV:   9    -0.938489225269E+02   -0.64917E-03   -0.62826E-04   112   0.145E-01    0.717E-02
DAV:  10    -0.938496971716E+02   -0.77464E-03   -0.43912E-04    96   0.985E-02    0.195E-02
DAV:  11    -0.938501364967E+02   -0.43933E-03   -0.81103E-05    80   0.442E-02    0.126E-02
DAV:  12    -0.938504864940E+02   -0.35000E-03   -0.49782E-05    72   0.248E-02    0.844E-03
DAV:  13    -0.938509434607E+02   -0.45697E-03   -0.90140E-05    88   0.249E-02    0.739E-03
DAV:  14    -0.938512255828E+02   -0.28212E-03   -0.52496E-05    80   0.201E-02    0.320E-03
DAV:  15    -0.938513448242E+02   -0.11924E-03   -0.18051E-05    72   0.118E-02    0.236E-03
DAV:  16    -0.938514266572E+02   -0.81833E-04   -0.13159E-05    72   0.949E-03
  51 F= -.93851427E+02 E0= -.93822559E+02  d E =-.701624E+00
       N       E                     dE             d eps       ncg     rms          rms(c)
DAV:   1    -0.935551817276E+02    0.29616E+00   -0.41786E+01   120   0.675E+01    0.171E+00
DAV:   2    -0.940612017005E+02   -0.50602E+00   -0.54946E+00    96   0.124E+01    0.160E+00
DAV:   3    -0.940563918190E+02    0.48099E-02   -0.43918E-01   152   0.467E+00    0.111E+00
DAV:   4    -0.940418708166E+02    0.14521E-01   -0.11797E-01   128   0.230E+00    0.537E-01
DAV:   5    -0.940452571732E+02   -0.33864E-02   -0.42870E-02   136   0.121E+00    0.423E-01
DAV:   6    -0.940438263738E+02    0.14308E-02   -0.24261E-02   136   0.724E-01    0.139E-01
DAV:   7    -0.940441939066E+02   -0.36753E-03   -0.23921E-03   136   0.253E-01    0.534E-02
DAV:   8    -0.940443852241E+02   -0.19132E-03   -0.26268E-04    80   0.839E-02    0.317E-02
DAV:   9    -0.940445030453E+02   -0.11782E-03   -0.77725E-05    72   0.504E-02    0.117E-02
DAV:  10    -0.940445860607E+02   -0.83015E-04   -0.26986E-05    72   0.247E-02
  52 F= -.94044586E+02 E0= -.94015583E+02  d E =-.193159E+00
       N       E                     dE             d eps       ncg     rms          rms(c)
DAV:   1    -0.938617592786E+02    0.18274E+00   -0.17850E+01   112   0.449E+01    0.112E+00
DAV:   2    -0.940893313726E+02   -0.22757E+00   -0.24983E+00    96   0.854E+00    0.108E+00
DAV:   3    -0.940866476862E+02    0.26837E-02   -0.21399E-01   152   0.349E+00    0.704E-01
DAV:   4    -0.940810806265E+02    0.55671E-02   -0.44925E-02   136   0.144E+00    0.339E-01
DAV:   5    -0.940824057885E+02   -0.13252E-02   -0.10334E-02   136   0.863E-01    0.126E-01
DAV:   6    -0.940829340274E+02   -0.52824E-03   -0.38390E-03   136   0.328E-01    0.101E-01
DAV:   7    -0.940829276436E+02    0.63837E-05   -0.15953E-03   120   0.190E-01    0.430E-02
DAV:   8    -0.940830358467E+02   -0.10820E-03   -0.13887E-04    72   0.781E-02    0.201E-02
DAV:   9    -0.940831329357E+02   -0.97089E-04   -0.57553E-05    72   0.400E-02
  53 F= -.94083133E+02 E0= -.94053799E+02  d E =-.231706E+00
       N       E                     dE             d eps       ncg     rms          rms(c)
DAV:   1    -0.942508197442E+02   -0.16778E+00   -0.61852E+00   112   0.217E+01    0.697E-01
DAV:   2    -0.943008912324E+02   -0.50071E-01   -0.65516E-01   112   0.443E+00    0.683E-01
DAV:   3    -0.942985521566E+02    0.23391E-02   -0.82727E-02   152   0.204E+00    0.448E-01
DAV:   4    -0.942961875266E+02    0.23646E-02   -0.20232E-02   136   0.105E+00    0.224E-01
DAV:   5    -0.942964784530E+02   -0.29093E-03   -0.65249E-03   136   0.633E-01    0.130E-01
DAV:   6    -0.942964746573E+02    0.37958E-05   -0.38194E-03   136   0.333E-01    0.769E-02
DAV:   7    -0.942964704178E+02    0.42395E-05   -0.72541E-04   104   0.145E-01
  54 F= -.94296470E+02 E0= -.94266842E+02  d E =-.213337E+00
       N       E                     dE             d eps       ncg     rms          rms(c)
DAV:   1    -0.942211821603E+02    0.75292E-01   -0.41050E+01   112   0.556E+01    0.184E+00
DAV:   2    -0.945531282180E+02   -0.33195E+00   -0.44388E+00    96   0.114E+01    0.160E+00
DAV:   3    -0.945392065505E+02    0.13922E-01   -0.49887E-01   152   0.460E+00    0.112E+00
DAV:   4    -0.945265267323E+02    0.12680E-01   -0.13794E-01   136   0.257E+00    0.706E-01
DAV:   5    -0.945234907556E+02    0.30360E-02   -0.56689E-02   128   0.167E+00    0.362E-01
DAV:   6    -0.945232355034E+02    0.25525E-03   -0.26215E-02   136   0.893E-01    0.207E-01
DAV:   7    -0.945229427781E+02    0.29273E-03   -0.56744E-03   136   0.401E-01    0.672E-02
DAV:   8    -0.945231466788E+02   -0.20390E-03   -0.45102E-04    96   0.110E-01    0.288E-02
DAV:   9    -0.945232826232E+02   -0.13594E-03   -0.75254E-05    72   0.566E-02    0.105E-02
DAV:  10    -0.945233838297E+02   -0.10121E-03   -0.31178E-05    72   0.311E-02    0.544E-03
DAV:  11    -0.945234909193E+02   -0.10709E-03   -0.14457E-05    72   0.173E-02    0.325E-03
DAV:  12    -0.945235989839E+02   -0.10806E-03   -0.11547E-05    72   0.112E-02    0.225E-03
DAV:  13    -0.945237015723E+02   -0.10259E-03   -0.11412E-05    72   0.961E-03    0.144E-03
DAV:  14    -0.945237604052E+02   -0.58833E-04   -0.80620E-06    64   0.798E-03
  55 F= -.94523760E+02 E0= -.94492501E+02  d E =-.440627E+00
       N       E                     dE             d eps       ncg     rms          rms(c)
[...]
DAV:   1    -0.950418732238E+02    0.36500E-03   -0.13569E-01   112   0.330E+00    0.101E-01
DAV:   2    -0.950428223790E+02   -0.94916E-03   -0.12545E-02   112   0.604E-01    0.670E-02
DAV:   3    -0.950428677181E+02   -0.45339E-04   -0.90107E-04   128   0.248E-01
  71 F= -.95042868E+02 E0= -.95033356E+02  d E =-.873773E-02
       N       E                     dE             d eps       ncg     rms          rms(c)
DAV:   1    -0.950462974769E+02   -0.34751E-02   -0.78520E-01    96   0.685E+00    0.223E-01
DAV:   2    -0.950501875721E+02   -0.38901E-02   -0.55996E-02   112   0.126E+00    0.162E-01
DAV:   3    -0.950502934611E+02   -0.10589E-03   -0.47293E-03   152   0.601E-01    0.148E-01
DAV:   4    -0.950501261393E+02    0.16732E-03   -0.18383E-03   136   0.454E-01    0.845E-02
DAV:   5    -0.950501626911E+02   -0.36552E-04   -0.65376E-04   104   0.221E-01
  72 F= -.95050163E+02 E0= -.95041931E+02  d E =-.729497E-02
       N       E                     dE             d eps       ncg     rms          rms(c)
DAV:   1    -0.950489901341E+02    0.11360E-02   -0.71603E-01    96   0.652E+00    0.213E-01
DAV:   2    -0.950527809175E+02   -0.37908E-02   -0.50651E-02   112   0.131E+00    0.202E-01
DAV:   3    -0.950526481045E+02    0.13281E-03   -0.55355E-03   152   0.715E-01    0.141E-01
DAV:   4    -0.950525028065E+02    0.14530E-03   -0.16610E-03   128   0.403E-01    0.729E-02
DAV:   5    -0.950525743534E+02   -0.71547E-04   -0.67559E-04   112   0.209E-01
  73 F= -.95052574E+02 E0= -.95045609E+02  d E =-.970664E-02
       N       E                     dE             d eps       ncg     rms          rms(c)
DAV:   1    -0.950535492194E+02   -0.10464E-02   -0.83244E-01   112   0.762E+00    0.245E-01
DAV:   2    -0.950585550367E+02   -0.50058E-02   -0.79644E-02   112   0.138E+00    0.141E-01
DAV:   3    -0.950585351025E+02    0.19934E-04   -0.56698E-03   144   0.389E-01    0.998E-02
DAV:   4    -0.950585711097E+02   -0.36007E-04   -0.10953E-03   128   0.295E-01    0.889E-02
DAV:   5    -0.950585574431E+02    0.13667E-04   -0.58719E-04    96   0.265E-01
  74 F= -.95058557E+02 E0= -.95052250E+02  d E =-.598309E-02
       N       E                     dE             d eps       ncg     rms          rms(c)
DAV:   1    -0.950545915816E+02    0.39795E-02   -0.97238E-01   112   0.816E+00    0.268E-01
DAV:   2    -0.950605777670E+02   -0.59862E-02   -0.94649E-02   112   0.150E+00    0.166E-01
DAV:   3    -0.950604967644E+02    0.81003E-04   -0.76251E-03   144   0.430E-01    0.120E-01
DAV:   4    -0.950604428972E+02    0.53867E-04   -0.13912E-03   128   0.280E-01    0.815E-02
DAV:   5    -0.950605025267E+02   -0.59630E-04   -0.64094E-04   104   0.262E-01
  75 F= -.95060503E+02 E0= -.95054963E+02  d E =-.792817E-02
       N       E                     dE             d eps       ncg     rms          rms(c)
DAV:   1    -0.950618667258E+02   -0.14238E-02   -0.29946E-01   112   0.480E+00    0.143E-01
DAV:   2    -0.950641840525E+02   -0.23173E-02   -0.31581E-02   112   0.885E-01    0.894E-02
DAV:   3    -0.950641992421E+02   -0.15190E-04   -0.21031E-03   144   0.223E-01    0.648E-02
DAV:   4    -0.950642001966E+02   -0.95451E-06   -0.36951E-04    96   0.138E-01
  76 F= -.95064200E+02 E0= -.95059288E+02  d E =-.369767E-02
       N       E                     dE             d eps       ncg     rms          rms(c)
DAV:   1    -0.950503787050E+02    0.13821E-01   -0.27017E+00   112   0.145E+01    0.425E-01
DAV:   2    -0.950721201834E+02   -0.21741E-01   -0.28236E-01   104   0.281E+00    0.379E-01
DAV:   3    -0.950719031025E+02    0.21708E-03   -0.24789E-02   152   0.137E+00    0.275E-01
DAV:   4    -0.950710332135E+02    0.86989E-03   -0.50869E-03   136   0.701E-01    0.133E-01
DAV:   5    -0.950712637598E+02   -0.23055E-03   -0.16271E-03   128   0.310E-01    0.518E-02
DAV:   6    -0.950713487773E+02   -0.85018E-04   -0.61040E-04   104   0.141E-01
  77 F= -.95071349E+02 E0= -.95067567E+02  d E =-.108463E-01
       N       E                     dE             d eps       ncg     rms          rms(c)
DAV:   1    -0.949791725631E+02    0.92091E-01   -0.10838E+01   112   0.289E+01    0.804E-01
DAV:   2    -0.950680862803E+02   -0.88914E-01   -0.10980E+00    96   0.546E+00    0.650E-01
DAV:   3    -0.950695732049E+02   -0.14869E-02   -0.83797E-02   144   0.218E+00    0.539E-01
DAV:   4    -0.950658928375E+02    0.36804E-02   -0.19593E-02   136   0.135E+00    0.253E-01
DAV:   5    -0.950664246720E+02   -0.53183E-03   -0.50960E-03   128   0.582E-01    0.826E-02
DAV:   6    -0.950666421766E+02   -0.21750E-03   -0.17856E-03   128   0.246E-01    0.667E-02
DAV:   7    -0.950666105998E+02    0.31577E-04   -0.52981E-04   104   0.137E-01
  78 F= -.95066611E+02 E0= -.95064691E+02  d E =-.610807E-02
       N       E                     dE             d eps       ncg     rms          rms(c)
DAV:   1    -0.950342822510E+02    0.32360E-01   -0.50847E+00   112   0.197E+01    0.565E-01
DAV:   2    -0.950738119290E+02   -0.39530E-01   -0.50535E-01    96   0.375E+00    0.473E-01
DAV:   3    -0.950740285587E+02   -0.21663E-03   -0.42686E-02   152   0.174E+00    0.365E-01
DAV:   4    -0.950723727627E+02    0.16558E-02   -0.92404E-03   136   0.975E-01    0.178E-01
DAV:   5    -0.950726107474E+02   -0.23798E-03   -0.25068E-03   128   0.393E-01    0.549E-02
DAV:   6    -0.950727426064E+02   -0.13186E-03   -0.66391E-04   104   0.132E-01    0.322E-02
DAV:   7    -0.950727607020E+02   -0.18096E-04   -0.14747E-04    80   0.834E-02
  79 F= -.95072761E+02 E0= -.95069630E+02  d E =-.122582E-01
       N       E                     dE             d eps       ncg     rms          rms(c)
DAV:   1    -0.950731006054E+02   -0.35800E-03   -0.89430E-01   112   0.849E+00    0.224E-01
DAV:   2    -0.950803314623E+02   -0.72309E-02   -0.87435E-02    96   0.159E+00    0.165E-01
DAV:   3    -0.950804611164E+02   -0.12965E-03   -0.57530E-03   144   0.627E-01    0.128E-01
DAV:   4    -0.950803478467E+02    0.11327E-03   -0.15547E-03   128   0.392E-01    0.856E-02
DAV:   5    -0.950803983558E+02   -0.50509E-04   -0.69143E-04   120   0.243E-01
  80 F= -.95080398E+02 E0= -.95077982E+02  d E =-.763765E-02
       N       E                     dE             d eps       ncg     rms          rms(c)
DAV:   1    -0.950398310242E+02    0.40517E-01   -0.56946E+00   112   0.214E+01    0.562E-01
DAV:   2    -0.950873545733E+02   -0.47524E-01   -0.56177E-01    96   0.403E+00    0.410E-01
DAV:   3    -0.950881766437E+02   -0.82207E-03   -0.35463E-02   152   0.150E+00    0.320E-01
DAV:   4    -0.950874517854E+02    0.72486E-03   -0.96987E-03   136   0.917E-01    0.215E-01
DAV:   5    -0.950877607132E+02   -0.30893E-03   -0.49101E-03   136   0.628E-01    0.161E-01
DAV:   6    -0.950875505137E+02    0.21020E-03   -0.27198E-03   136   0.316E-01    0.404E-02
DAV:   7    -0.950875905346E+02   -0.40021E-04   -0.20548E-04    80   0.829E-02
  81 F= -.95087591E+02 E0= -.95086511E+02  d E =-.148298E-01
       N       E                     dE             d eps       ncg     rms          rms(c)
DAV:   1    -0.950894548779E+02   -0.19044E-02   -0.36589E-01   112   0.531E+00    0.138E-01
DAV:   2    -0.950923200931E+02   -0.28652E-02   -0.34004E-02   112   0.102E+00    0.120E-01
DAV:   3    -0.950923263282E+02   -0.62351E-05   -0.25457E-03   152   0.449E-01    0.816E-02
DAV:   4    -0.950923039765E+02    0.22352E-04   -0.53658E-04   112   0.233E-01
  82 F= -.95092304E+02 E0= -.95091414E+02  d E =-.471344E-02
       N       E                     dE             d eps       ncg     rms          rms(c)
DAV:   1    -0.950759496027E+02    0.16377E-01   -0.32845E+00   112   0.159E+01    0.419E-01
DAV:   2    -0.951017512143E+02   -0.25802E-01   -0.30301E-01    96   0.306E+00    0.373E-01
DAV:   3    -0.951018187071E+02   -0.67493E-04   -0.23494E-02   160   0.133E+00    0.260E-01
DAV:   4    -0.951013284834E+02    0.49022E-03   -0.54230E-03   144   0.689E-01    0.155E-01
DAV:   5    -0.951016432150E+02   -0.31473E-03   -0.29247E-03   136   0.398E-01    0.118E-01
DAV:   6    -0.951015671738E+02    0.76041E-04   -0.15129E-03   128   0.213E-01    0.322E-02
DAV:   7    -0.951015990322E+02   -0.31858E-04   -0.95679E-05    72   0.711E-02
  83 F= -.95101599E+02 E0= -.95101086E+02  d E =-.140085E-01
       N       E                     dE             d eps       ncg     rms          rms(c)
DAV:   1    -0.949916663909E+02    0.10990E+00   -0.13277E+01   112   0.317E+01    0.827E-01
DAV:   2    -0.950970880803E+02   -0.10542E+00   -0.12352E+00    96   0.607E+00    0.689E-01
DAV:   3    -0.950973315869E+02   -0.24351E-03   -0.88254E-02   152   0.209E+00    0.481E-01
DAV:   4    -0.950956032788E+02    0.17283E-02   -0.21069E-02   136   0.134E+00    0.324E-01
DAV:   5    -0.950959599859E+02   -0.35671E-03   -0.12143E-02   136   0.850E-01    0.237E-01
DAV:   6    -0.950956318683E+02    0.32812E-03   -0.58478E-03   144   0.432E-01    0.632E-02
DAV:   7    -0.950957231722E+02   -0.91304E-04   -0.48263E-04   120   0.129E-01
  84 F= -.95095723E+02 E0= -.95095588E+02  d E =-.813264E-02
       N       E                     dE             d eps       ncg     rms          rms(c)
DAV:   1    -0.950561154608E+02    0.39516E-01   -0.64322E+00   112   0.220E+01    0.576E-01
DAV:   2    -0.951043435938E+02   -0.48228E-01   -0.57533E-01    96   0.420E+00    0.518E-01
DAV:   3    -0.951042528625E+02    0.90731E-04   -0.47352E-02   144   0.183E+00    0.336E-01
DAV:   4    -0.951034204377E+02    0.83242E-03   -0.98092E-03   136   0.994E-01    0.220E-01
DAV:   5    -0.951036815392E+02   -0.26110E-03   -0.56871E-03   136   0.547E-01    0.164E-01
DAV:   6    -0.951035736699E+02    0.10787E-03   -0.26803E-03   136   0.297E-01    0.368E-02
DAV:   7    -0.951036357599E+02   -0.62090E-04   -0.16908E-04    80   0.765E-02
  85 F= -.95103636E+02 E0= -.95103282E+02  d E =-.160452E-01
       N       E                     dE             d eps       ncg     rms          rms(c)
DAV:   1    -0.951083248425E+02   -0.47512E-02   -0.11617E-01    96   0.197E+00    0.864E-02
DAV:   2    -0.951085880402E+02   -0.26320E-03   -0.50764E-03   128   0.431E-01    0.105E-01
DAV:   3    -0.951084633868E+02    0.12465E-03   -0.95847E-04   128   0.318E-01    0.473E-02
DAV:   4    -0.951084610117E+02    0.23751E-05   -0.22938E-04    88   0.126E-01
  86 F= -.95108461E+02 E0= -.95108119E+02  d E =-.482525E-02
       N       E                     dE             d eps       ncg     rms          rms(c)
DAV:   1    -0.951168736715E+02   -0.84103E-02   -0.10506E+00    96   0.593E+00    0.266E-01
DAV:   2    -0.951193582098E+02   -0.24845E-02   -0.46546E-02   128   0.132E+00    0.322E-01
DAV:   3    -0.951181772868E+02    0.11809E-02   -0.90412E-03   136   0.934E-01    0.149E-01
DAV:   4    -0.951181024161E+02    0.74871E-04   -0.24534E-03   128   0.365E-01    0.927E-02
DAV:   5    -0.951180641137E+02    0.38302E-04   -0.15628E-03   128   0.246E-01    0.561E-02
DAV:   6    -0.951180305370E+02    0.33577E-04   -0.29146E-04    96   0.955E-02
  87 F= -.95118031E+02 E0= -.95117714E+02  d E =-.143948E-01
       N       E                     dE             d eps       ncg     rms          rms(c)
DAV:   1    -0.951103972403E+02    0.76669E-02   -0.42522E+00    96   0.119E+01    0.531E-01
DAV:   2    -0.951200529404E+02   -0.96557E-02   -0.19114E-01   128   0.262E+00    0.624E-01
DAV:   3    -0.951156388206E+02    0.44141E-02   -0.36017E-02   128   0.143E+00    0.293E-01
DAV:   4    -0.951151715128E+02    0.46731E-03   -0.10491E-02   128   0.760E-01    0.205E-01
DAV:   5    -0.951148158159E+02    0.35570E-03   -0.67831E-03   136   0.514E-01    0.106E-01
DAV:   6    -0.951147240789E+02    0.91737E-04   -0.11596E-03   120   0.186E-01    0.348E-02
DAV:   7    -0.951147475231E+02   -0.23444E-04   -0.67191E-05    72   0.513E-02
  88 F= -.95114748E+02 E0= -.95114473E+02  d E =-.111118E-01
       N       E                     dE             d eps       ncg     rms          rms(c)
DAV:   1    -0.951188455967E+02   -0.41215E-02   -0.15936E+00    96   0.744E+00    0.324E-01
DAV:   2    -0.951223532793E+02   -0.35077E-02   -0.69225E-02   128   0.166E+00    0.390E-01
DAV:   3    -0.951207039914E+02    0.16493E-02   -0.14360E-02   136   0.109E+00    0.182E-01
DAV:   4    -0.951205494343E+02    0.15456E-03   -0.36387E-03   128   0.469E-01    0.114E-01
DAV:   5    -0.951204911844E+02    0.58250E-04   -0.23501E-03   128   0.309E-01    0.698E-02
DAV:   6    -0.951204455543E+02    0.45630E-04   -0.44945E-04    96   0.125E-01
  89 F= -.95120446E+02 E0= -.95120144E+02  d E =-.168098E-01
       N       E                     dE             d eps       ncg     rms          rms(c)
DAV:   1    -0.951253405089E+02   -0.48493E-02   -0.18435E-01   104   0.281E+00    0.102E-01
DAV:   2    -0.951258789870E+02   -0.53848E-03   -0.89177E-03   120   0.497E-01    0.825E-02
DAV:   3    -0.951258212424E+02    0.57745E-04   -0.10045E-03   120   0.264E-01    0.573E-02
DAV:   4    -0.951257916982E+02    0.29544E-04   -0.35298E-04    96   0.174E-01
  90 F= -.95125792E+02 E0= -.95125515E+02  d E =-.534614E-02
       N       E                     dE             d eps       ncg     rms          rms(c)
DAV:   1    -0.951313978966E+02   -0.55767E-02   -0.16612E+00   104   0.848E+00    0.313E-01
DAV:   2    -0.951364283418E+02   -0.50304E-02   -0.80554E-02   120   0.158E+00    0.273E-01
DAV:   3    -0.951358611204E+02    0.56722E-03   -0.10120E-02   120   0.895E-01    0.193E-01
DAV:   4    -0.951355433233E+02    0.31780E-03   -0.40901E-03   144   0.569E-01    0.118E-01
DAV:   5    -0.951354818944E+02    0.61429E-04   -0.23955E-03   128   0.362E-01    0.708E-02
DAV:   6    -0.951354237554E+02    0.58139E-04   -0.51254E-04   104   0.149E-01
  91 F= -.95135424E+02 E0= -.95135192E+02  d E =-.149782E-01
       N       E                     dE             d eps       ncg     rms          rms(c)
DAV:   1    -0.951355769660E+02   -0.95072E-04   -0.36379E-01   104   0.396E+00    0.146E-01
DAV:   2    -0.951366344257E+02   -0.10575E-02   -0.17751E-02   120   0.712E-01    0.123E-01
DAV:   3    -0.951365010861E+02    0.13334E-03   -0.21160E-03   120   0.406E-01    0.825E-02
DAV:   4    -0.951364525372E+02    0.48549E-04   -0.79455E-04   128   0.262E-01
  92 F= -.95136453E+02 E0= -.95136245E+02  d E =-.160070E-01
       N       E                     dE             d eps       ncg     rms          rms(c)
DAV:   1    -0.951422540591E+02   -0.57530E-02   -0.30342E-01    96   0.322E+00    0.139E-01
DAV:   2    -0.951425807070E+02   -0.32665E-03   -0.10247E-02   128   0.542E-01    0.846E-02
DAV:   3    -0.951426384363E+02   -0.57729E-04   -0.15043E-03   136   0.334E-01    0.939E-02
DAV:   4    -0.951425337567E+02    0.10468E-03   -0.80451E-04   104   0.287E-01    0.399E-02
DAV:   5    -0.951425389446E+02   -0.51879E-05   -0.13068E-04    80   0.103E-01
  93 F= -.95142539E+02 E0= -.95142336E+02  d E =-.608641E-02
       N       E                     dE             d eps       ncg     rms          rms(c)
DAV:   1    -0.951452003071E+02   -0.26666E-02   -0.63969E-01    96   0.466E+00    0.196E-01
DAV:   2    -0.951458774497E+02   -0.67714E-03   -0.22359E-02   120   0.756E-01    0.127E-01
DAV:   3    -0.951459638896E+02   -0.86440E-04   -0.36634E-03   152   0.460E-01    0.141E-01
DAV:   4    -0.951457067505E+02    0.25714E-03   -0.18594E-03   128   0.370E-01    0.562E-02
DAV:   5    -0.951457446954E+02   -0.37945E-04   -0.50165E-04   104   0.211E-01
  94 F= -.95145745E+02 E0= -.95145558E+02  d E =-.929216E-02
       N       E                     dE             d eps       ncg     rms          rms(c)
DAV:   1    -0.951482193319E+02   -0.25126E-02   -0.19135E-01   104   0.347E+00    0.121E-01
DAV:   2    -0.951491482851E+02   -0.92895E-03   -0.14573E-02   120   0.647E-01    0.808E-02
DAV:   3    -0.951491819899E+02   -0.33705E-04   -0.13526E-03   144   0.317E-01    0.839E-02
DAV:   4    -0.951491149011E+02    0.67089E-04   -0.59647E-04   104   0.261E-01
  95 F= -.95149115E+02 E0= -.95148960E+02  d E =-.337021E-02
       N       E                     dE             d eps       ncg     rms          rms(c)
DAV:   1    -0.951493052022E+02   -0.12321E-03   -0.86819E-02   104   0.234E+00    0.852E-02
DAV:   2    -0.951497215672E+02   -0.41636E-03   -0.67147E-03   120   0.451E-01    0.582E-02
DAV:   3    -0.951497459739E+02   -0.24407E-04   -0.72933E-04   128   0.216E-01
  96 F= -.95149746E+02 E0= -.95149619E+02  d E =-.400128E-02
       N       E                     dE             d eps       ncg     rms          rms(c)
DAV:   1    -0.951510118068E+02   -0.12902E-02   -0.13796E-01   112   0.300E+00    0.993E-02
DAV:   2    -0.951517300070E+02   -0.71820E-03   -0.99627E-03    96   0.540E-01    0.679E-02
DAV:   3    -0.951517423215E+02   -0.12315E-04   -0.85067E-04   136   0.168E-01
  97 F= -.95151742E+02 E0= -.95151628E+02  d E =-.199635E-02
       N       E                     dE             d eps       ncg     rms          rms(c)
DAV:   1    -0.951517268501E+02    0.31568E-05   -0.60808E-02   112   0.200E+00    0.764E-02
DAV:   2    -0.951520319602E+02   -0.30511E-03   -0.43710E-03   104   0.385E-01    0.565E-02
DAV:   3    -0.951520505071E+02   -0.18547E-04   -0.50513E-04   120   0.229E-01
  98 F= -.95152051E+02 E0= -.95151941E+02  d E =-.230453E-02
       N       E                     dE             d eps       ncg     rms          rms(c)
DAV:   1    -0.951528882374E+02   -0.85628E-03   -0.84543E-02    96   0.227E+00    0.774E-02
DAV:   2    -0.951533250597E+02   -0.43682E-03   -0.61097E-03   112   0.437E-01    0.620E-02
DAV:   3    -0.951533135183E+02    0.11541E-04   -0.59942E-04   112   0.185E-01
  99 F= -.95153314E+02 E0= -.95153210E+02  d E =-.126301E-02
       N       E                     dE             d eps       ncg     rms          rms(c)
DAV:   1    -0.951532251627E+02    0.99897E-04   -0.81307E-02    96   0.224E+00    0.856E-02
DAV:   2    -0.951536367366E+02   -0.41157E-03   -0.58831E-03   112   0.492E-01    0.798E-02
DAV:   3    -0.951536019974E+02    0.34739E-04   -0.85028E-04   128   0.302E-01
 100 F= -.95153602E+02 E0= -.95153497E+02  d E =-.155149E-02
       N       E                     dE             d eps       ncg     rms          rms(c)
DAV:   1    -0.951541680549E+02   -0.53132E-03   -0.94205E-02   104   0.248E+00    0.969E-02
DAV:   2    -0.951547193556E+02   -0.55130E-03   -0.86879E-03   104   0.524E-01    0.995E-02
DAV:   3    -0.951546125083E+02    0.10685E-03   -0.11866E-03   128   0.235E-01    0.490E-02
DAV:   4    -0.951546350164E+02   -0.22508E-04   -0.37464E-04   104   0.186E-01
 101 F= -.95154635E+02 E0= -.95154530E+02  d E =-.103302E-02
       N       E                     dE             d eps       ncg     rms          rms(c)
DAV:   1    -0.951545098945E+02    0.10261E-03   -0.48811E-02   104   0.179E+00    0.676E-02
DAV:   2    -0.951547743411E+02   -0.26445E-03   -0.39654E-03    96   0.349E-01    0.503E-02
DAV:   3    -0.951547754631E+02   -0.11220E-05   -0.36995E-04   104   0.116E-01
 102 F= -.95154775E+02 E0= -.95154674E+02  d E =-.117347E-02
       N       E                     dE             d eps       ncg     rms          rms(c)
DAV:   1    -0.951549448265E+02   -0.17049E-03   -0.10089E-01   112   0.276E+00    0.951E-02
DAV:   2    -0.951555974531E+02   -0.65263E-03   -0.87979E-03   104   0.523E-01    0.775E-02
DAV:   3    -0.951555693452E+02    0.28108E-04   -0.83223E-04   120   0.242E-01
 103 F= -.95155569E+02 E0= -.95155468E+02  d E =-.793882E-03
       N       E                     dE             d eps       ncg     rms          rms(c)
DAV:   1    -0.951554112448E+02    0.18621E-03   -0.33918E-02   112   0.161E+00    0.723E-02
DAV:   2    -0.951557104004E+02   -0.29916E-03   -0.38116E-03   128   0.425E-01    0.983E-02
DAV:   3    -0.951555896386E+02    0.12076E-03   -0.84744E-04   112   0.268E-01    0.367E-02
DAV:   4    -0.951556136766E+02   -0.24038E-04   -0.17430E-04    88   0.125E-01
 104 F= -.95155614E+02 E0= -.95155514E+02  d E =-.838214E-03
