 vasp.6.4.1 05Apr23 (build May 06 2024 18:04:33) complex                        
  
 executed on             LinuxIFC date 2024.07.11  23:18:21
 running   32 mpi-ranks, on    1 nodes
 distrk:  each k-point on   32 cores,    1 groups
 distr:  one band on NCORE=   8 cores,    4 groups


--------------------------------------------------------------------------------------------------------


 INCAR:
   SIGMA = 0.100000
   GGA = PE
   PREC = Normal
   IBRION = 2
   ISMEAR = 0
   LORBIT = 10
   NSW = 500
   NCORE = 8
   LASPH = .TRUE.
   LCHARG = .FALSE.
   LWAVE = .FALSE.
   LREAL = Auto

 POTCAR:    PAW_PBE Ti_sv 26Sep2005               
 POTCAR:    PAW_PBE Al 04Jan2001                  
 POTCAR:    PAW_PBE B 06Sep2000                   
 POTCAR:    PAW_PBE Ti_sv 26Sep2005               
   SHA256 =  4d747badb5a5ea28d858fbac70885b3f8929d6fd9e5b0dbe1ecb9878dc164da1 Ti_sv/POTCAR          
   COPYR  = (c) Copyright 26Sep2005 Georg Kresse                                                    
   COPYR  = This file is part of the software VASP. Any use, copying, and all other rights are regul
   COPYR  = If you do not have a valid VASP license, you may not use, copy or distribute this file. 
   VRHFIN =Ti: 3p4s3d                                                                               
   LEXCH  = PE                                                                                      
   EATOM  =  1588.0892 eV,  116.7213 Ry                                                             
                                                                                                    
   TITEL  = PAW_PBE Ti_sv 26Sep2005                                                                 
   LULTRA =        F    use ultrasoft PP ?                                                          
   IUNSCR =        1    unscreen: 0-lin 1-nonlin 2-no                                               
   RPACOR =    2.000    partial core radius                                                         
   POMASS =   47.880; ZVAL   =   12.000    mass and valenz                                          
   RCORE  =    2.300    outmost cutoff radius                                                       
   RWIGS  =    2.300; RWIGS  =    1.217    wigner-seitz radius (au A)                               
   ENMAX  =  274.610; ENMIN  =  205.957 eV                                                          
   ICORE  =        3    local potential                                                             
   LCOR   =        T    correct aug charges                                                         
   LPAW   =        T    paw PP                                                                      
   EAUG   =  482.848                                                                                
   RMAX   =    2.348    core radius for proj-oper                                                   
   RAUG   =    1.300    factor for augmentation sphere                                              
   RDEP   =    2.381    radius for radial grids                                                     
   RDEPT  =    1.930    core radius for aug-charge                                                  
                                                                                                    
   Atomic configuration                                                                             
    8 entries                                                                                       
     n  l   j            E        occ.                                                              
     1  0  0.50     -4865.3608   2.0000                                                             
     2  0  0.50      -533.1368   2.0000                                                             
     2  1  1.50      -440.5031   6.0000                                                             
     3  0  0.50       -59.3186   2.0000                                                             
     4  0  0.50        -3.7291   1.0000                                                             
     3  1  1.50       -35.7012   6.0000                                                             
     3  2  2.50        -1.9157   3.0000                                                             
     4  3  2.50        -1.3606   0.0000                                                             
   Description                                                                                      
     l       E           TYP  RCUT    TYP  RCUT                                                     
     0    -59.3185931     23  1.800                                                                 
     0     -3.7290822     23  2.300                                                                 
     1    -35.7012045     23  2.300                                                                 
     1     -1.3605826     23  2.300                                                                 
     2     -1.9156920     23  2.300                                                                 
     2     -0.0236318     23  2.300                                                                 
     3     -1.3605826     23  2.300                                                                 
  local pseudopotential read in
  partial core-charges read in
  partial kinetic energy density read in
  atomic valenz-charges read in
  non local Contribution for L=           0  read in
    real space projection operators read in
  non local Contribution for L=           0  read in
    real space projection operators read in
  non local Contribution for L=           1  read in
    real space projection operators read in
  non local Contribution for L=           1  read in
    real space projection operators read in
  non local Contribution for L=           2  read in
    real space projection operators read in
  non local Contribution for L=           2  read in
    real space projection operators read in
    PAW grid and wavefunctions read in
 
   number of l-projection  operators is LMAX  =           6
   number of lm-projection operators is LMMAX =          18
 
 POTCAR:    PAW_PBE Al 04Jan2001                  
   SHA256 =  17880443556af62b473fe41b62a467bd001ad55d2cabe504a3f22e34d4e9db96 Al/POTCAR             
   COPYR  = (c) Copyright 04Jan2001 Georg Kresse                                                    
   COPYR  = This file is part of the software VASP. Any use, copying, and all other rights are regul
   COPYR  = If you do not have a valid VASP license, you may not use, copy or distribute this file. 
   VRHFIN =Al: s2p1                                                                                 
   LEXCH  = PE                                                                                      
   EATOM  =    53.5387 eV,    3.9350 Ry                                                             
                                                                                                    
   TITEL  = PAW_PBE Al 04Jan2001                                                                    
   LULTRA =        F    use ultrasoft PP ?                                                          
   IUNSCR =        1    unscreen: 0-lin 1-nonlin 2-no                                               
   RPACOR =    1.500    partial core radius                                                         
   POMASS =   26.981; ZVAL   =    3.000    mass and valenz                                          
   RCORE  =    1.900    outmost cutoff radius                                                       
   RWIGS  =    2.650; RWIGS  =    1.402    wigner-seitz radius (au A)                               
   ENMAX  =  240.300; ENMIN  =  180.225 eV                                                          
   ICORE  =        2    local potential                                                             
   LCOR   =        T    correct aug charges                                                         
   LPAW   =        T    paw PP                                                                      
   EAUG   =  291.052                                                                                
   DEXC   =    0.000                                                                                
   RMAX   =    1.939    core radius for proj-oper                                                   
   RAUG   =    1.300    factor for augmentation sphere                                              
   RDEP   =    1.966    radius for radial grids                                                     
   RDEPT  =    1.856    core radius for aug-charge                                                  
                                                                                                    
   Atomic configuration                                                                             
    6 entries                                                                                       
     n  l   j            E        occ.                                                              
     1  0  0.50     -1511.1048   2.0000                                                             
     2  0  0.50      -108.1629   2.0000                                                             
     2  1  1.50       -69.6402   6.0000                                                             
     3  0  0.50        -7.7528   2.0000                                                             
     3  1  1.50        -2.7121   1.0000                                                             
     3  2  2.50        -2.7212   0.0000                                                             
   Description                                                                                      
     l       E           TYP  RCUT    TYP  RCUT                                                     
     0     -7.7528455     23  1.900                                                                 
     0     -3.3096929     23  1.900                                                                 
     1     -2.7120682     23  1.900                                                                 
     1     13.6058260     23  1.900                                                                 
     2     -2.7211652      7  1.900                                                                 
  local pseudopotential read in
  partial core-charges read in
  partial kinetic energy density read in
  atomic valenz-charges read in
  non local Contribution for L=           0  read in
    real space projection operators read in
  non local Contribution for L=           0  read in
    real space projection operators read in
  non local Contribution for L=           1  read in
    real space projection operators read in
  non local Contribution for L=           1  read in
    real space projection operators read in
    PAW grid and wavefunctions read in
 
   number of l-projection  operators is LMAX  =           4
   number of lm-projection operators is LMMAX =           8
 
 POTCAR:    PAW_PBE B 06Sep2000                   
   SHA256 =  a32ced30f5ae56fd4d10b4325ff17eb3e4e38ee0f4288bc219fb012fddfa6e97 B/POTCAR              
   COPYR  = (c) Copyright 06Sep2000 Georg Kresse                                                    
   COPYR  = This file is part of the software VASP. Any use, copying, and all other rights are regul
   COPYR  = If you do not have a valid VASP license, you may not use, copy or distribute this file. 
   VRHFIN =B: s2p1                                                                                  
   LEXCH  = PE                                                                                      
   EATOM  =    71.1703 eV,    5.2309 Ry                                                             
                                                                                                    
   TITEL  = PAW_PBE B 06Sep2000                                                                     
   LULTRA =        F    use ultrasoft PP ?                                                          
   IUNSCR =        1    unscreen: 0-lin 1-nonlin 2-no                                               
   RPACOR =    1.200    partial core radius                                                         
   POMASS =   10.811; ZVAL   =    3.000    mass and valenz                                          
   RCORE  =    1.700    outmost cutoff radius                                                       
   RWIGS  =    1.710; RWIGS  =    0.905    wigner-seitz radius (au A)                               
   ENMAX  =  318.614; ENMIN  =  238.960 eV                                                          
   ICORE  =        2    local potential                                                             
   LCOR   =        T    correct aug charges                                                         
   LPAW   =        T    paw PP                                                                      
   EAUG   =  535.514                                                                                
   DEXC   =    0.000                                                                                
   RMAX   =    1.732    core radius for proj-oper                                                   
   RAUG   =    1.300    factor for augmentation sphere                                              
   RDEP   =    1.757    radius for radial grids                                                     
   RDEPT  =    1.436    core radius for aug-charge                                                  
                                                                                                    
   Atomic configuration                                                                             
    4 entries                                                                                       
     n  l   j            E        occ.                                                              
     1  0  0.50      -180.5896   2.0000                                                             
     2  0  0.50        -9.4431   2.0000                                                             
     2  1  0.50        -3.6068   1.0000                                                             
     3  2  1.50        -4.0817   0.0000                                                             
   Description                                                                                      
     l       E           TYP  RCUT    TYP  RCUT                                                     
     0     -9.4430752     23  1.500                                                                 
     0      0.8675899     23  1.500                                                                 
     1     -3.6067955     23  1.700                                                                 
     1      6.1086146     23  1.700                                                                 
     2     -4.0817478      7  1.700                                                                 
  local pseudopotential read in
  partial core-charges read in
  partial kinetic energy density read in
  atomic valenz-charges read in
  non local Contribution for L=           0  read in
    real space projection operators read in
  non local Contribution for L=           0  read in
    real space projection operators read in
  non local Contribution for L=           1  read in
    real space projection operators read in
  non local Contribution for L=           1  read in
    real space projection operators read in
    PAW grid and wavefunctions read in
 
   number of l-projection  operators is LMAX  =           4
   number of lm-projection operators is LMMAX =           8
 
 Optimization of the real space projectors (new method)

 maximal supplied QI-value         = 16.25
 optimisation between [QCUT,QGAM] = [  9.10, 18.20] = [ 23.19, 92.78] Ry 
 Optimized for a Real-space Cutoff    1.50 Angstroem

   l    n(q)    QCUT    max X(q) W(low)/X(q) W(high)/X(q)  e(spline) 
   0      8     9.101    12.277    0.37E-04    0.34E-04    0.22E-07
   0      8     9.101    11.419    0.55E-04    0.79E-04    0.37E-07
   1      8     9.101     4.010    0.10E-03    0.23E-04    0.81E-07
   1      8     9.101     6.182    0.31E-03    0.17E-03    0.18E-06
   2      7     9.101    47.177    0.44E-03    0.41E-03    0.22E-06
   2      7     9.101    42.437    0.43E-03    0.40E-03    0.21E-06
 Optimization of the real space projectors (new method)

 maximal supplied QI-value         = 19.84
 optimisation between [QCUT,QGAM] = [  9.13, 18.25] = [ 23.33, 93.32] Ry 
 Optimized for a Real-space Cutoff    1.26 Angstroem

   l    n(q)    QCUT    max X(q) W(low)/X(q) W(high)/X(q)  e(spline) 
   0      7     9.127   176.870    0.31E-03    0.39E-03    0.66E-07
   0      7     9.127   105.762    0.31E-03    0.39E-03    0.65E-07
   1      6     9.127    55.370    0.10E-03    0.67E-03    0.11E-06
   1      6     9.127    20.208    0.90E-04    0.60E-03    0.11E-06
 Optimization of the real space projectors (new method)

 maximal supplied QI-value         = 22.11
 optimisation between [QCUT,QGAM] = [  9.07, 18.13] = [ 23.01, 92.04] Ry 
 Optimized for a Real-space Cutoff    1.46 Angstroem

   l    n(q)    QCUT    max X(q) W(low)/X(q) W(high)/X(q)  e(spline) 
   0      8     9.065    53.033    0.38E-03    0.70E-03    0.20E-06
   0      8     9.065    34.740    0.38E-03    0.69E-03    0.20E-06
   1      7     9.065    30.949    0.34E-03    0.21E-03    0.23E-06
   1      7     9.065    19.518    0.31E-03    0.17E-03    0.22E-06
  PAW_PBE Ti_sv 26Sep2005               :
 energy of atom  1       EATOM=-1588.0892
 kinetic energy error for atom=    0.0422 (will be added to EATOM!!)
  PAW_PBE Al 04Jan2001                  :
 energy of atom  2       EATOM=  -53.5387
 kinetic energy error for atom=    0.0008 (will be added to EATOM!!)
  PAW_PBE B 06Sep2000                   :
 energy of atom  3       EATOM=  -71.1703
 kinetic energy error for atom=    0.0071 (will be added to EATOM!!)
 
 
 POSCAR: Ti Al  B
  positions in cartesian coordinates
  No initial velocities read in
 exchange correlation table for  LEXCH =        8
   RHO(1)=    0.500       N(1)  =     2000
   RHO(2)=  100.500       N(2)  =     4000
 


--------------------------------------------------------------------------------------------------------


 ion  position               nearest neighbor table
   1  0.435  0.304  0.619-
   2  0.413  0.536  0.444-  10 2.04  13 2.26  14 2.44  11 2.52
   3  0.681  0.638  0.520-   6 2.80
   4  0.639  0.363  0.371-   5 1.68   9 2.41
   5  0.607  0.393  0.446-   4 1.68   9 2.14   8 2.27  15 2.50
   6  0.648  0.541  0.620-   3 2.80
   7  0.440  0.510  0.620-  18 1.17  17 1.38
   8  0.545  0.485  0.441-  13 1.19  15 1.55   5 2.27
   9  0.539  0.318  0.415-   5 2.14   4 2.41
  10  0.323  0.498  0.460-  14 1.19   2 2.04
  11  0.431  0.417  0.478-  17 1.92   2 2.52
  12  0.545  0.431  0.653-
  13  0.517  0.527  0.409-   8 1.19   2 2.26
  14  0.311  0.533  0.510-  10 1.19   2 2.44
  15  0.607  0.513  0.476-   8 1.55   5 2.50
  16  0.572  0.657  0.436-
  17  0.425  0.469  0.564-   7 1.38  18 1.90  11 1.92
  18  0.452  0.556  0.585-   7 1.17  17 1.90
 
 -----------------------------------------------------------------------------
|                                                                             |
|           W    W    AA    RRRRR   N    N  II  N    N   GGGG   !!!           |
|           W    W   A  A   R    R  NN   N  II  NN   N  G    G  !!!           |
|           W    W  A    A  R    R  N N  N  II  N N  N  G       !!!           |
|           W WW W  AAAAAA  RRRRR   N  N N  II  N  N N  G  GGG   !            |
|           WW  WW  A    A  R   R   N   NN  II  N   NN  G    G                |
|           W    W  A    A  R    R  N    N  II  N    N   GGGG   !!!           |
|                                                                             |
|     The distance between some ions is very small. Please check the          |
|     nearest-neighbor list in the OUTCAR file.                               |
|     I HOPE YOU KNOW WHAT YOU ARE DOING!                                     |
|                                                                             |
 -----------------------------------------------------------------------------

  LATTYP: Found a simple orthorhombic cell.
 ALAT       =    18.7770921638
 B/A-ratio  =     1.0747575963
 C/A-ratio  =     1.1044721563
  
  Lattice vectors:
  
 A1 = (   0.0000000000,   0.0000000000, -18.7770921638)
 A2 = (   0.0000000000,  20.1808224396,   0.0000000000)
 A3 = (  20.7387754714,   0.0000000000,   0.0000000000)


Analysis of symmetry for initial positions (statically):
=====================================================================
 Subroutine PRICEL returns:
 Original cell was already a primitive cell.
 

 Routine SETGRP: Setting up the symmetry group for a 
 simple orthorhombic supercell.


 Subroutine GETGRP returns: Found  1 space group operations
 (whereof  1 operations were pure point group operations)
 out of a pool of  8 trial point group operations.


The static configuration has the point symmetry C_1 .


Analysis of symmetry for dynamics (positions and initial velocities):
=====================================================================
 Subroutine PRICEL returns:
 Original cell was already a primitive cell.
 

 Routine SETGRP: Setting up the symmetry group for a 
 simple orthorhombic supercell.


 Subroutine GETGRP returns: Found  1 space group operations
 (whereof  1 operations were pure point group operations)
 out of a pool of  8 trial point group operations.


The dynamic configuration has the point symmetry C_1 .


 Subroutine INISYM returns: Found  1 space group operations
 (whereof  1 operations are pure point group operations),
 and found     1 'primitive' translations


----------------------------------------------------------------------------------------

                                     Primitive cell                                     

  volume of cell :    7858.6927

  direct lattice vectors                    reciprocal lattice vectors
    20.738775471  0.000000000  0.000000000     0.048218855  0.000000000  0.000000000
     0.000000000 20.180822440  0.000000000     0.000000000  0.049551994  0.000000000
     0.000000000  0.000000000 18.777092164     0.000000000  0.000000000  0.053256382

  length of vectors
    20.738775471 20.180822440 18.777092164     0.048218855  0.049551994  0.053256382

  position of ions in fractional coordinates (direct lattice)
     0.435419020  0.303570606  0.619099504
     0.412830868  0.536093646  0.444102167
     0.681476761  0.638432695  0.519734047
     0.639293047  0.362528120  0.370740714
     0.606898278  0.392801075  0.446061156
     0.647725448  0.541344134  0.619773027
     0.440165504  0.510119491  0.619504145
     0.544998161  0.485327456  0.441090525
     0.538993937  0.318466501  0.415376592
     0.322581069  0.498363223  0.460241560
     0.430840933  0.416882775  0.478164774
     0.544516459  0.430500785  0.653194592
     0.516754345  0.527243863  0.408814807
     0.311472233  0.533484949  0.509525629
     0.607304965  0.513458762  0.475780531
     0.571525631  0.656661683  0.436176525
     0.424762370  0.468705151  0.563687470
     0.451945394  0.556493177  0.584882692

  ion indices of the primitive-cell ions
   primitive index   ion index
                 1           1
                 2           2
                 3           3
                 4           4
                 5           5
                 6           6
                 7           7
                 8           8
                 9           9
                10          10
                11          11
                12          12
                13          13
                14          14
                15          15
                16          16
                17          17
                18          18

----------------------------------------------------------------------------------------

 
 
 KPOINTS: KPOINTS created by Atomic Simulation Env

Automatic generation of k-mesh.
 Grid dimensions read from file:
 generate k-points for:    1    1    1

 Generating k-lattice:

  Cartesian coordinates                     Fractional coordinates (reciprocal lattice)
     0.048218855  0.000000000  0.000000000     1.000000000  0.000000000  0.000000000
     0.000000000  0.049551994  0.000000000     0.000000000  1.000000000  0.000000000
     0.000000000  0.000000000  0.053256382     0.000000000  0.000000000  1.000000000

  Length of vectors
     0.048218855  0.049551994  0.053256382

  Shift w.r.t. Gamma in fractional coordinates (k-lattice)
     0.000000000  0.000000000  0.000000000

 
 Subroutine IBZKPT returns following result:
 ===========================================
 
 Found      1 irreducible k-points:
 
 Following reciprocal coordinates:
            Coordinates               Weight
  0.000000  0.000000  0.000000      1.000000
 
 Following cartesian coordinates:
            Coordinates               Weight
  0.000000  0.000000  0.000000      1.000000
 


--------------------------------------------------------------------------------------------------------




 Dimension of arrays:
   k-points           NKPTS =      1   k-points in BZ     NKDIM =      1   number of bands    NBANDS=     48
   number of dos      NEDOS =    301   number of ions     NIONS =     18
   non local maximal  LDIM  =      6   non local SUM 2l+1 LMDIM =     18
   total plane-waves  NPLWV = 725760
   max r-space proj   IRMAX =   1360   max aug-charges    IRDMAX=   3793
   dimension x,y,z NGX =    96 NGY =   90 NGZ =   84
   dimension x,y,z NGXF=   192 NGYF=  180 NGZF=  168
   support grid    NGXF=   192 NGYF=  180 NGZF=  168
   ions per type =               2   4  12
   NGX,Y,Z   is equivalent  to a cutoff of   7.70,  7.41,  7.44 a.u.
   NGXF,Y,Z  is equivalent  to a cutoff of  15.39, 14.83, 14.87 a.u.

 SYSTEM =  unknown system                          
 POSCAR =  Ti Al  B                                

 Startparameter for this run:
   NWRITE =      2    write-flag & timer
   PREC   = normal    normal or accurate (medium, high low for compatibility)
   ISTART =      0    job   : 0-new  1-cont  2-samecut
   ICHARG =      2    charge: 1-file 2-atom 10-const
   ISPIN  =      1    spin polarized calculation?
   LNONCOLLINEAR =      F non collinear calculations
   LSORBIT =      F    spin-orbit coupling
   INIWAV =      1    electr: 0-lowe 1-rand  2-diag
   LASPH  =      T    aspherical Exc in radial PAW
 Electronic Relaxation 1
   ENCUT  =  318.6 eV  23.42 Ry    4.84 a.u.  30.18 29.37 27.33*2*pi/ulx,y,z
   ENINI  =  318.6     initial cutoff
   ENAUG  =  535.5 eV  augmentation charge cutoff
   NELM   =     60;   NELMIN=  2; NELMDL= -5     # of ELM steps 
   EDIFF  = 0.1E-03   stopping-criterion for ELM
   LREAL  =      T    real-space projection
   NLSPLINE    = F    spline interpolate recip. space projectors
   LCOMPAT=      F    compatible to vasp.4.4
   GGA_COMPAT  = T    GGA compatible to vasp.4.4-vasp.4.6
   LMAXPAW     = -100 max onsite density
   LMAXMIX     =    2 max onsite mixed and CHGCAR
   VOSKOWN=      0    Vosko Wilk Nusair interpolation
   ROPT   =   -0.00050  -0.00050  -0.00050
 Ionic relaxation
   EDIFFG = 0.1E-02   stopping-criterion for IOM
   NSW    =    500    number of steps for IOM
   NBLOCK =      1;   KBLOCK =    500    inner block; outer block 
   IBRION =      2    ionic relax: 0-MD 1-quasi-New 2-CG
   NFREE  =      1    steps in history (QN), initial steepest desc. (CG)
   ISIF   =      2    stress and relaxation
   IWAVPR =     11    prediction:  0-non 1-charg 2-wave 3-comb
   ISYM   =      2    0-nonsym 1-usesym 2-fastsym
   LCORR  =      T    Harris-Foulkes like correction to forces

   POTIM  = 0.5000    time-step for ionic-motion
   TEIN   =    0.0    initial temperature
   TEBEG  =    0.0;   TEEND  =   0.0 temperature during run
   SMASS  =  -3.00    Nose mass-parameter (am)
   estimated Nose-frequenzy (Omega)   =  0.10E-29 period in steps = 0.13E+47 mass=  -0.983E-26a.u.
   SCALEE = 1.0000    scale energy and forces
   NPACO  =    256;   APACO  = 10.0  distance and # of slots for P.C.
   PSTRESS=    0.0 pullay stress

  Mass of Ions in am
   POMASS =  47.88 26.98 10.81
  Ionic Valenz
   ZVAL   =  12.00  3.00  3.00
  Atomic Wigner-Seitz radii
   RWIGS  =  -1.00 -1.00 -1.00
  virtual crystal weights 
   VCA    =   1.00  1.00  1.00
   NELECT =      72.0000    total number of electrons
   NUPDOWN=      -1.0000    fix difference up-down

 DOS related values:
   EMIN   =  10.00;   EMAX   =-10.00  energy-range for DOS
   EFERMI =   0.00;   METHOD = LEGACY      
   ISMEAR =     0;   SIGMA  =   0.10  broadening in eV -4-tet -1-fermi 0-gaus

 Electronic relaxation 2 (details)
   IALGO  =     38    algorithm
   LDIAG  =      T    sub-space diagonalisation (order eigenvalues)
   LSUBROT=      F    optimize rotation matrix (better conditioning)
   TURBO    =      0    0=normal 1=particle mesh
   IRESTART =      0    0=no restart 2=restart with 2 vectors
   NREBOOT  =      0    no. of reboots
   NMIN     =      0    reboot dimension
   EREF     =   0.00    reference energy to select bands
   IMIX   =      4    mixing-type and parameters
     AMIX     =   0.40;   BMIX     =  1.00
     AMIX_MAG =   1.60;   BMIX_MAG =  1.00
     AMIN     =   0.10
     WC   =   100.;   INIMIX=   1;  MIXPRE=   1;  MAXMIX= -45

 Intra band minimization:
   WEIMIN = 0.0010     energy-eigenvalue tresh-hold
   EBREAK =  0.52E-06  absolut break condition
   DEPER  =   0.30     relativ break condition  

   TIME   =   0.40     timestep for ELM

  volume/ion in A,a.u.               =     436.59      2946.28
  Fermi-wavevector in a.u.,A,eV,Ry     =   0.342559  0.647343  1.596600  0.117347
  Thomas-Fermi vector in A             =   1.248020
 
 Write flags
   LWAVE        =      F    write WAVECAR
   LDOWNSAMPLE  =      F    k-point downsampling of WAVECAR
   LCHARG       =      F    write CHGCAR
   LVTOT        =      F    write LOCPOT, total local potential
   LVHAR        =      F    write LOCPOT, Hartree potential only
   LELF         =      F    write electronic localiz. function (ELF)
   LORBIT       =     10    0 simple, 1 ext, 2 COOP (PROOUT), +10 PAW based schemes


 Dipole corrections
   LMONO  =      F    monopole corrections only (constant potential shift)
   LDIPOL =      F    correct potential (dipole corrections)
   IDIPOL =      0    1-x, 2-y, 3-z, 4-all directions 
   EPSILON=  1.0000000 bulk dielectric constant

 Exchange correlation treatment:
   GGA     =    PE    GGA type
   LEXCH   =     8    internal setting for exchange type
   LIBXC   =     F    Libxc                    
   VOSKOWN =     0    Vosko Wilk Nusair interpolation
   LHFCALC =     F    Hartree Fock is set to
   LHFONE  =     F    Hartree Fock one center treatment
   AEXX    =    0.0000 exact exchange contribution

 Linear response parameters
   LEPSILON=     F    determine dielectric tensor
   LRPA    =     F    only Hartree local field effects (RPA)
   LNABLA  =     F    use nabla operator in PAW spheres
   LVEL    =     F    velocity operator in full k-point grid
   CSHIFT  =0.1000    complex shift for real part using Kramers Kronig
   OMEGAMAX=  -1.0    maximum frequency
   DEG_THRESHOLD= 0.2000000E-02 threshold for treating states as degnerate
   RTIME   =   -0.100 relaxation time in fs
  (WPLASMAI=    0.000 imaginary part of plasma frequency in eV, 0.658/RTIME)
   DFIELD  = 0.0000000 0.0000000 0.0000000 field for delta impulse in time
 
  Optional k-point grid parameters
   LKPOINTS_OPT  =     F    use optional k-point grid
   KPOINTS_OPT_MODE=     1    mode for optional k-point grid
 
 Orbital magnetization related:
   ORBITALMAG=     F  switch on orbital magnetization
   LCHIMAG   =     F  perturbation theory with respect to B field
   DQ        =  0.001000  dq finite difference perturbation B field
   LLRAUG    =     F  two centre corrections for induced B field
   LBONE     =     F  B-component reconstruction in AE one-centre
   LVGVCALC  =     T  calculate vGv susceptibility
   LVGVAPPL  =     F  apply vGv susceptibility instead of pGv for G=0

 Random number generation:
   RANDOM_GENERATOR = DEFAULT
   PCG_SEED         = not used


--------------------------------------------------------------------------------------------------------


 conjugate gradient relaxation of ions
 charge density and potential will be updated during run
 non-spin polarized calculation
 Variant of blocked Davidson
 Davidson routine will perform the subspace rotation
 perform sub-space diagonalisation
    after iterative eigenvector-optimisation
 modified Broyden-mixing scheme, WC =      100.0
 initial mixing is a Kerker type mixing with AMIX =  0.4000 and BMIX =      1.0000
 Hartree-type preconditioning will be used
 using additional bands           12
 real space projection scheme for non local part
 use partial core corrections
 calculate Harris-corrections to forces 
   (improved forces if not selfconsistent)
 use gradient corrections 
 use of overlap-Matrix (Vanderbilt PP)
 Gauss-broadening in eV      SIGMA  =   0.10


--------------------------------------------------------------------------------------------------------


  energy-cutoff  :      318.61
  volume of cell :     7858.69
      direct lattice vectors                 reciprocal lattice vectors
    20.738775471  0.000000000  0.000000000     0.048218855  0.000000000  0.000000000
     0.000000000 20.180822440  0.000000000     0.000000000  0.049551994  0.000000000
     0.000000000  0.000000000 18.777092164     0.000000000  0.000000000  0.053256382

  length of vectors
    20.738775471 20.180822440 18.777092164     0.048218855  0.049551994  0.053256382


 
 k-points in units of 2pi/SCALE and weight: KPOINTS created by Atomic Simulation Env
   0.00000000  0.00000000  0.00000000       1.000
 
 k-points in reciprocal lattice and weights: KPOINTS created by Atomic Simulation Env
   0.00000000  0.00000000  0.00000000       1.000
 
 position of ions in fractional coordinates (direct lattice) 
   0.43541902  0.30357061  0.61909950
   0.41283087  0.53609365  0.44410217
   0.68147676  0.63843269  0.51973405
   0.63929305  0.36252812  0.37074071
   0.60689828  0.39280108  0.44606116
   0.64772545  0.54134413  0.61977303
   0.44016550  0.51011949  0.61950414
   0.54499816  0.48532746  0.44109053
   0.53899394  0.31846650  0.41537659
   0.32258107  0.49836322  0.46024156
   0.43084093  0.41688277  0.47816477
   0.54451646  0.43050079  0.65319459
   0.51675435  0.52724386  0.40881481
   0.31147223  0.53348495  0.50952563
   0.60730496  0.51345876  0.47578053
   0.57152563  0.65666168  0.43617653
   0.42476237  0.46870515  0.56368747
   0.45194539  0.55649318  0.58488269
 
 position of ions in cartesian coordinates  (Angst):
   9.03005729  6.12630451 11.62488845
   8.56160667 10.81881068  8.33894732
  14.13299354 12.88409685  9.75909411
  13.25815496  7.31611562  6.96143256
  12.58632713  7.92704875  8.37573143
  13.43303263 10.92476985 11.63753525
   9.12849356 10.29463087 11.63248642
  11.30259450  9.79430722  8.28239744
  11.17807425  6.42691591  7.79956455
   6.68993636 10.05737971  8.64199819
   8.93511337  8.41303726  8.97854404
  11.29260458  8.68785991 12.26509505
  10.71685234 10.64021479  7.67635330
   6.45955270 10.76616504  9.56740969
  12.59476131 10.36202010  8.93377489
  11.85274173 13.25197282  8.19012681
   8.80905142  9.45885544 10.58441158
   9.37279405 11.23048999 10.98239622
 


--------------------------------------------------------------------------------------------------------


 k-point   1 :   0.0000 0.0000 0.0000  plane waves:  101433

 maximum and minimum number of plane-waves per node :     12689    12672

 maximum number of plane-waves:    101433
 maximum index in each direction: 
   IXMAX=   30   IYMAX=   29   IZMAX=   27
   IXMIN=  -30   IYMIN=  -29   IZMIN=  -27


 real space projection operators:
  total allocation   :       1416.88 KBytes
  max/ min on nodes  :        183.86        171.53


 parallel 3D FFT for wavefunctions:
    minimum data exchange during FFTs selected (reduces bandwidth)
 parallel 3D FFT for charge:
    minimum data exchange during FFTs selected (reduces bandwidth)


 total amount of memory used by VASP MPI-rank0    57435. kBytes
=======================================================================

   base      :      30000. kBytes
   nonlr-proj:        614. kBytes
   fftplans  :       8954. kBytes
   grid      :      15378. kBytes
   one-center:         46. kBytes
   wavefun   :       2443. kBytes
 
     INWAV:  cpu time      0.0001: real time      0.0232
 Broyden mixing: mesh for mixing (old mesh)
   NGX = 61   NGY = 59   NGZ = 55
  (NGX  =192   NGY  =180   NGZ  =168)
  gives a total of 197945 points

 initial charge density was supplied:
 charge density of overlapping atoms calculated
 number of electron      72.0000000 magnetization 
 keeping initial charge density in first step


--------------------------------------------------------------------------------------------------------


 Maximum index for non-local projection operator          168
 Maximum index for augmentation-charges          247 (set IRDMAX)


--------------------------------------------------------------------------------------------------------


 First call to EWALD:  gamma=   0.089
 Maximum number of real-space cells 3x 3x 3
 Maximum number of reciprocal cells 3x 3x 3

    FEWALD:  cpu time      0.0013: real time      0.0013


--------------------------------------- Ionic step        1  -------------------------------------------




--------------------------------------- Iteration      1(   1)  ---------------------------------------


    POTLOK:  cpu time      0.7670: real time      0.7711
    SETDIJ:  cpu time      0.3950: real time      0.4778
     EDDAV:  cpu time      2.7943: real time      4.2938
       DOS:  cpu time      0.0323: real time      0.0324
    --------------------------------------------
      LOOP:  cpu time      3.9886: real time      5.5752

 eigenvalue-minimisations  :   128
 total energy-change (2. order) : 0.4057252E+03  (-0.1678904E+04)
 number of electron      72.0000000 magnetization 
 augmentation part       72.0000000 magnetization 

 Free energy of the ion-electron system (eV)
  ---------------------------------------------------
  alpha Z        PSCENC =         3.99825575
  Ewald energy   TEWEN  =      3452.17801569
  -Hartree energ DENC   =     -6767.24697210
  -exchange      EXHF   =         0.00000000
  -V(xc)+E(xc)   XCENC  =        80.76187887
  PAW double counting   =      3315.92939605    -3138.67763419
  entropy T*S    EENTRO =        -0.13478180
  eigenvalues    EBANDS =      -785.28648788
  atomic energy  EATOM  =      4244.20348233
  Solvation  Ediel_sol  =         0.00000000
  ---------------------------------------------------
  free energy    TOTEN  =       405.72515272 eV

  energy without entropy =      405.85993452  energy(sigma->0) =      405.79254362


--------------------------------------------------------------------------------------------------------




--------------------------------------- Iteration      1(   2)  ---------------------------------------


     EDDAV:  cpu time      2.7773: real time      2.7976
       DOS:  cpu time      0.2277: real time      0.2282
    --------------------------------------------
      LOOP:  cpu time      3.0050: real time      3.0258

 eigenvalue-minimisations  :   144
 total energy-change (2. order) :-0.3414620E+03  (-0.3275190E+03)
 number of electron      72.0000000 magnetization 
 augmentation part       72.0000000 magnetization 

 Free energy of the ion-electron system (eV)
  ---------------------------------------------------
  alpha Z        PSCENC =         3.99825575
  Ewald energy   TEWEN  =      3452.17801569
  -Hartree energ DENC   =     -6767.24697210
  -exchange      EXHF   =         0.00000000
  -V(xc)+E(xc)   XCENC  =        80.76187887
  PAW double counting   =      3315.92939605    -3138.67763419
  entropy T*S    EENTRO =        -0.00141461
  eigenvalues    EBANDS =     -1126.88187154
  atomic energy  EATOM  =      4244.20348233
  Solvation  Ediel_sol  =         0.00000000
  ---------------------------------------------------
  free energy    TOTEN  =        64.26313625 eV

  energy without entropy =       64.26455086  energy(sigma->0) =       64.26384355


--------------------------------------------------------------------------------------------------------




--------------------------------------- Iteration      1(   3)  ---------------------------------------


     EDDAV:  cpu time      2.3180: real time      2.3386
       DOS:  cpu time      0.1740: real time      0.1744
    --------------------------------------------
      LOOP:  cpu time      2.4920: real time      2.5130

 eigenvalue-minimisations  :   152
 total energy-change (2. order) :-0.1433678E+03  (-0.1415343E+03)
 number of electron      72.0000000 magnetization 
 augmentation part       72.0000000 magnetization 

 Free energy of the ion-electron system (eV)
  ---------------------------------------------------
  alpha Z        PSCENC =         3.99825575
  Ewald energy   TEWEN  =      3452.17801569
  -Hartree energ DENC   =     -6767.24697210
  -exchange      EXHF   =         0.00000000
  -V(xc)+E(xc)   XCENC  =        80.76187887
  PAW double counting   =      3315.92939605    -3138.67763419
  entropy T*S    EENTRO =        -0.00008027
  eigenvalues    EBANDS =     -1270.25099015
  atomic energy  EATOM  =      4244.20348233
  Solvation  Ediel_sol  =         0.00000000
  ---------------------------------------------------
  free energy    TOTEN  =       -79.10464802 eV

  energy without entropy =      -79.10456775  energy(sigma->0) =      -79.10460789


--------------------------------------------------------------------------------------------------------




--------------------------------------- Iteration      1(   4)  ---------------------------------------


     EDDAV:  cpu time      2.1094: real time      2.1405
       DOS:  cpu time      0.0135: real time      0.0135
    --------------------------------------------
      LOOP:  cpu time      2.1229: real time      2.1541

 eigenvalue-minimisations  :   120
 total energy-change (2. order) :-0.1607867E+02  (-0.1581191E+02)
 number of electron      72.0000000 magnetization 
 augmentation part       72.0000000 magnetization 

 Free energy of the ion-electron system (eV)
  ---------------------------------------------------
  alpha Z        PSCENC =         3.99825575
  Ewald energy   TEWEN  =      3452.17801569
  -Hartree energ DENC   =     -6767.24697210
  -exchange      EXHF   =         0.00000000
  -V(xc)+E(xc)   XCENC  =        80.76187887
  PAW double counting   =      3315.92939605    -3138.67763419
  entropy T*S    EENTRO =        -0.00029058
  eigenvalues    EBANDS =     -1286.32944916
  atomic energy  EATOM  =      4244.20348233
  Solvation  Ediel_sol  =         0.00000000
  ---------------------------------------------------
  free energy    TOTEN  =       -95.18331735 eV

  energy without entropy =      -95.18302676  energy(sigma->0) =      -95.18317206


--------------------------------------------------------------------------------------------------------




--------------------------------------- Iteration      1(   5)  ---------------------------------------


     EDDAV:  cpu time      1.9359: real time      1.9533
       DOS:  cpu time      0.2500: real time      0.2506
    CHARGE:  cpu time      0.0847: real time      0.0854
    MIXING:  cpu time      0.1228: real time      0.1232
    --------------------------------------------
      LOOP:  cpu time      2.3935: real time      2.4125

 eigenvalue-minimisations  :   136
 total energy-change (2. order) :-0.7878949E+00  (-0.7828312E+00)
 number of electron      71.9999972 magnetization 
 augmentation part        6.1950477 magnetization 

 Broyden mixing:
  rms(total) = 0.30664E+01    rms(broyden)= 0.30655E+01
  rms(prec ) = 0.37961E+01
  weight for this iteration     100.00

 Free energy of the ion-electron system (eV)
  ---------------------------------------------------
  alpha Z        PSCENC =         3.99825575
  Ewald energy   TEWEN  =      3452.17801569
  -Hartree energ DENC   =     -6767.24697210
  -exchange      EXHF   =         0.00000000
  -V(xc)+E(xc)   XCENC  =        80.76187887
  PAW double counting   =      3315.92939605    -3138.67763419
  entropy T*S    EENTRO =        -0.00067590
  eigenvalues    EBANDS =     -1287.11695875
  atomic energy  EATOM  =      4244.20348233
  Solvation  Ediel_sol  =         0.00000000
  ---------------------------------------------------
  free energy    TOTEN  =       -95.97121225 eV

  energy without entropy =      -95.97053635  energy(sigma->0) =      -95.97087430


--------------------------------------------------------------------------------------------------------




--------------------------------------- Iteration      1(   6)  ---------------------------------------


    POTLOK:  cpu time      0.8841: real time      0.9004
    SETDIJ:  cpu time      0.1486: real time      0.1490
     EDDAV:  cpu time      2.5596: real time      2.5798
       DOS:  cpu time      0.0006: real time      0.0006
    CHARGE:  cpu time      0.0857: real time      0.0859
    MIXING:  cpu time      0.0563: real time      0.0564
    --------------------------------------------
      LOOP:  cpu time      3.7349: real time      3.7721

 eigenvalue-minimisations  :   160
 total energy-change (2. order) : 0.2171323E+02  (-0.5706345E+02)
 number of electron      71.9999964 magnetization 
 augmentation part       12.9428369 magnetization 

 Broyden mixing:
  rms(total) = 0.50832E+01    rms(broyden)= 0.50825E+01
  rms(prec ) = 0.60284E+01
  weight for this iteration     100.00

 eigenvalues of (default mixing * dielectric matrix)
  average eigenvalue GAMMA=   0.3365
  0.3365

 Free energy of the ion-electron system (eV)
  ---------------------------------------------------
  alpha Z        PSCENC =         3.99825575
  Ewald energy   TEWEN  =      3452.17801569
  -Hartree energ DENC   =     -6741.62450039
  -exchange      EXHF   =         0.00000000
  -V(xc)+E(xc)   XCENC  =        80.06681616
  PAW double counting   =      3816.92924398    -3650.12789130
  entropy T*S    EENTRO =        -0.09280216
  eigenvalues    EBANDS =     -1279.78859946
  atomic energy  EATOM  =      4244.20348233
  Solvation  Ediel_sol  =         0.00000000
  ---------------------------------------------------
  free energy    TOTEN  =       -74.25797941 eV

  energy without entropy =      -74.16517725  energy(sigma->0) =      -74.21157833


--------------------------------------------------------------------------------------------------------




--------------------------------------- Iteration      1(   7)  ---------------------------------------


    POTLOK:  cpu time      0.8776: real time      0.9108
    SETDIJ:  cpu time      0.8604: real time      0.9754
     EDDAV:  cpu time      2.1526: real time      2.7347
       DOS:  cpu time      0.2776: real time      0.2783
    CHARGE:  cpu time      0.1269: real time      0.1272
    MIXING:  cpu time      0.0894: real time      0.0897
    --------------------------------------------
      LOOP:  cpu time      4.3844: real time      5.1161

 eigenvalue-minimisations  :   144
 total energy-change (2. order) : 0.1816971E+02  (-0.4313698E+02)
 number of electron      71.9999976 magnetization 
 augmentation part        6.0413973 magnetization 

 Broyden mixing:
  rms(total) = 0.18965E+01    rms(broyden)= 0.18954E+01
  rms(prec ) = 0.24177E+01
  weight for this iteration     100.00

 eigenvalues of (default mixing * dielectric matrix)
  average eigenvalue GAMMA=   0.5230
  0.7672  0.2788

 Free energy of the ion-electron system (eV)
  ---------------------------------------------------
  alpha Z        PSCENC =         3.99825575
  Ewald energy   TEWEN  =      3452.17801569
  -Hartree energ DENC   =     -6884.78167587
  -exchange      EXHF   =         0.00000000
  -V(xc)+E(xc)   XCENC  =        85.06328129
  PAW double counting   =      4210.06104338    -4040.96338819
  entropy T*S    EENTRO =        -0.07638044
  eigenvalues    EBANDS =     -1125.77090775
  atomic energy  EATOM  =      4244.20348233
  Solvation  Ediel_sol  =         0.00000000
  ---------------------------------------------------
  free energy    TOTEN  =       -56.08827382 eV

  energy without entropy =      -56.01189338  energy(sigma->0) =      -56.05008360


--------------------------------------------------------------------------------------------------------




--------------------------------------- Iteration      1(   8)  ---------------------------------------


    POTLOK:  cpu time      0.8401: real time      0.8884
    SETDIJ:  cpu time      0.3849: real time      0.3858
     EDDAV:  cpu time      2.9047: real time      2.9117
       DOS:  cpu time      0.2966: real time      0.2973
    CHARGE:  cpu time      0.1427: real time      0.1431
    MIXING:  cpu time      0.0398: real time      0.1409
    --------------------------------------------
      LOOP:  cpu time      4.6088: real time      4.7672

 eigenvalue-minimisations  :   152
 total energy-change (2. order) : 0.6135823E+01  (-0.6991433E+01)
 number of electron      71.9999966 magnetization 
 augmentation part        6.1120733 magnetization 

 Broyden mixing:
  rms(total) = 0.14261E+01    rms(broyden)= 0.14259E+01
  rms(prec ) = 0.17873E+01
  weight for this iteration     100.00

 eigenvalues of (default mixing * dielectric matrix)
  average eigenvalue GAMMA=   0.6161
  1.1173  0.3654  0.3654

 Free energy of the ion-electron system (eV)
  ---------------------------------------------------
  alpha Z        PSCENC =         3.99825575
  Ewald energy   TEWEN  =      3452.17801569
  -Hartree energ DENC   =     -6848.87806580
  -exchange      EXHF   =         0.00000000
  -V(xc)+E(xc)   XCENC  =        84.24027903
  PAW double counting   =      4419.58397918    -4251.66666468
  entropy T*S    EENTRO =        -0.00060679
  eigenvalues    EBANDS =     -1153.61112573
  atomic energy  EATOM  =      4244.20348233
  Solvation  Ediel_sol  =         0.00000000
  ---------------------------------------------------
  free energy    TOTEN  =       -49.95245102 eV

  energy without entropy =      -49.95184422  energy(sigma->0) =      -49.95214762


--------------------------------------------------------------------------------------------------------




--------------------------------------- Iteration      1(   9)  ---------------------------------------


    POTLOK:  cpu time      0.6087: real time      0.6572
    SETDIJ:  cpu time      0.1541: real time      0.1545
     EDDAV:  cpu time      2.0436: real time      2.6094
       DOS:  cpu time      0.2683: real time      0.2690
    CHARGE:  cpu time      0.1043: real time      0.1046
    MIXING:  cpu time      0.0813: real time      0.0815
    --------------------------------------------
      LOOP:  cpu time      3.2604: real time      3.8761

 eigenvalue-minimisations  :   160
 total energy-change (2. order) : 0.3609109E+01  (-0.2061442E+01)
 number of electron      72.0000023 magnetization 
 augmentation part        7.6747633 magnetization 

 Broyden mixing:
  rms(total) = 0.16164E+01    rms(broyden)= 0.16131E+01
  rms(prec ) = 0.20032E+01
  weight for this iteration     100.00

 eigenvalues of (default mixing * dielectric matrix)
  average eigenvalue GAMMA=   0.5284
  1.1977  0.4344  0.2823  0.1990

 Free energy of the ion-electron system (eV)
  ---------------------------------------------------
  alpha Z        PSCENC =         3.99825575
  Ewald energy   TEWEN  =      3452.17801569
  -Hartree energ DENC   =     -6854.35148756
  -exchange      EXHF   =         0.00000000
  -V(xc)+E(xc)   XCENC  =        84.29735682
  PAW double counting   =      4740.43912874    -4572.86574554
  entropy T*S    EENTRO =        -0.15796498
  eigenvalues    EBANDS =     -1144.08438374
  atomic energy  EATOM  =      4244.20348233
  Solvation  Ediel_sol  =         0.00000000
  ---------------------------------------------------
  free energy    TOTEN  =       -46.34334249 eV

  energy without entropy =      -46.18537751  energy(sigma->0) =      -46.26436000


--------------------------------------------------------------------------------------------------------




--------------------------------------- Iteration      1(  10)  ---------------------------------------


    POTLOK:  cpu time      0.4088: real time      0.4109
    SETDIJ:  cpu time      0.2156: real time      0.2881
     EDDAV:  cpu time      3.0139: real time      3.3951
       DOS:  cpu time      0.0170: real time      0.0170
    CHARGE:  cpu time      0.1219: real time      0.1222
    MIXING:  cpu time      0.2144: real time      0.2149
    --------------------------------------------
      LOOP:  cpu time      3.9915: real time      4.4482

 eigenvalue-minimisations  :   152
 total energy-change (2. order) : 0.6858681E+00  (-0.2540576E+01)
 number of electron      71.9999959 magnetization 
 augmentation part        6.1984543 magnetization 

 Broyden mixing:
  rms(total) = 0.95500E+00    rms(broyden)= 0.95210E+00
  rms(prec ) = 0.12053E+01
  weight for this iteration     100.00

 eigenvalues of (default mixing * dielectric matrix)
  average eigenvalue GAMMA=   0.5557
  1.1048  0.7516  0.4634  0.2864  0.1721

 Free energy of the ion-electron system (eV)
  ---------------------------------------------------
  alpha Z        PSCENC =         3.99825575
  Ewald energy   TEWEN  =      3452.17801569
  -Hartree energ DENC   =     -6852.52588518
  -exchange      EXHF   =         0.00000000
  -V(xc)+E(xc)   XCENC  =        84.40414022
  PAW double counting   =      4837.75268295    -4669.40337069
  entropy T*S    EENTRO =        -0.10704262
  eigenvalues    EBANDS =     -1146.15775287
  atomic energy  EATOM  =      4244.20348233
  Solvation  Ediel_sol  =         0.00000000
  ---------------------------------------------------
  free energy    TOTEN  =       -45.65747442 eV

  energy without entropy =      -45.55043180  energy(sigma->0) =      -45.60395311


--------------------------------------------------------------------------------------------------------




--------------------------------------- Iteration      1(  11)  ---------------------------------------


    POTLOK:  cpu time      0.4803: real time      0.4827
    SETDIJ:  cpu time      0.1567: real time      0.1571
     EDDAV:  cpu time      2.6710: real time      2.6774
       DOS:  cpu time      0.0115: real time      0.0115
    CHARGE:  cpu time      0.0764: real time      0.0766
    MIXING:  cpu time      0.0244: real time      0.0245
    --------------------------------------------
      LOOP:  cpu time      3.4203: real time      3.4297

 eigenvalue-minimisations  :   144
 total energy-change (2. order) : 0.1503716E+00  (-0.9244448E+00)
 number of electron      71.9999995 magnetization 
 augmentation part        7.6698567 magnetization 

 Broyden mixing:
  rms(total) = 0.12153E+01    rms(broyden)= 0.12147E+01
  rms(prec ) = 0.15320E+01
  weight for this iteration     100.00

 eigenvalues of (default mixing * dielectric matrix)
  average eigenvalue GAMMA=   0.5710
  1.0462  1.0462  0.4229  0.4229  0.3502  0.1379

 Free energy of the ion-electron system (eV)
  ---------------------------------------------------
  alpha Z        PSCENC =         3.99825575
  Ewald energy   TEWEN  =      3452.17801569
  -Hartree energ DENC   =     -6855.45132511
  -exchange      EXHF   =         0.00000000
  -V(xc)+E(xc)   XCENC  =        84.27667265
  PAW double counting   =      4992.30334696    -4821.05015756
  entropy T*S    EENTRO =        -0.20399119
  eigenvalues    EBANDS =     -1145.76140234
  atomic energy  EATOM  =      4244.20348233
  Solvation  Ediel_sol  =         0.00000000
  ---------------------------------------------------
  free energy    TOTEN  =       -45.50710282 eV

  energy without entropy =      -45.30311163  energy(sigma->0) =      -45.40510723


--------------------------------------------------------------------------------------------------------




--------------------------------------- Iteration      1(  12)  ---------------------------------------


    POTLOK:  cpu time      0.4320: real time      0.4333
    SETDIJ:  cpu time      0.2352: real time      0.2357
     EDDAV:  cpu time      1.9213: real time      2.0680
       DOS:  cpu time      0.0103: real time      0.0103
    CHARGE:  cpu time      0.0845: real time      0.0847
    MIXING:  cpu time      0.0246: real time      0.0246
    --------------------------------------------
      LOOP:  cpu time      2.7079: real time      2.8566

 eigenvalue-minimisations  :   136
 total energy-change (2. order) : 0.4151147E+00  (-0.4961750E+00)
 number of electron      71.9999970 magnetization 
 augmentation part        6.8065184 magnetization 

 Broyden mixing:
  rms(total) = 0.28068E+00    rms(broyden)= 0.28012E+00
  rms(prec ) = 0.32267E+00
  weight for this iteration     100.00

 eigenvalues of (default mixing * dielectric matrix)
  average eigenvalue GAMMA=   0.6662
  1.3665  1.3665  0.6778  0.4156  0.3497  0.3497  0.1377

 Free energy of the ion-electron system (eV)
  ---------------------------------------------------
  alpha Z        PSCENC =         3.99825575
  Ewald energy   TEWEN  =      3452.17801569
  -Hartree energ DENC   =     -6859.10882142
  -exchange      EXHF   =         0.00000000
  -V(xc)+E(xc)   XCENC  =        84.35278618
  PAW double counting   =      5086.11482744    -4912.83686425
  entropy T*S    EENTRO =        -0.15662502
  eigenvalues    EBANDS =     -1143.83704485
  atomic energy  EATOM  =      4244.20348233
  Solvation  Ediel_sol  =         0.00000000
  ---------------------------------------------------
  free energy    TOTEN  =       -45.09198815 eV

  energy without entropy =      -44.93536313  energy(sigma->0) =      -45.01367564


--------------------------------------------------------------------------------------------------------




--------------------------------------- Iteration      1(  13)  ---------------------------------------


    POTLOK:  cpu time      0.3816: real time      0.5225
    SETDIJ:  cpu time      0.1415: real time      0.1418
     EDDAV:  cpu time      2.1295: real time      2.1347
       DOS:  cpu time      0.0106: real time      0.0106
    CHARGE:  cpu time      0.0833: real time      0.0835
    MIXING:  cpu time      0.0251: real time      0.0251
    --------------------------------------------
      LOOP:  cpu time      2.7715: real time      2.9182

 eigenvalue-minimisations  :   152
 total energy-change (2. order) : 0.5740978E-01  (-0.5070722E-01)
 number of electron      71.9999969 magnetization 
 augmentation part        6.8389759 magnetization 

 Broyden mixing:
  rms(total) = 0.20760E+00    rms(broyden)= 0.20699E+00
  rms(prec ) = 0.24669E+00
  weight for this iteration     100.00

 eigenvalues of (default mixing * dielectric matrix)
  average eigenvalue GAMMA=   0.7360
  1.6358  1.6358  0.8019  0.6134  0.3694  0.3694  0.3244  0.1379

 Free energy of the ion-electron system (eV)
  ---------------------------------------------------
  alpha Z        PSCENC =         3.99825575
  Ewald energy   TEWEN  =      3452.17801569
  -Hartree energ DENC   =     -6866.44129850
  -exchange      EXHF   =         0.00000000
  -V(xc)+E(xc)   XCENC  =        84.46918368
  PAW double counting   =      5215.57304486    -5039.78594919
  entropy T*S    EENTRO =        -0.16097647
  eigenvalues    EBANDS =     -1139.06833651
  atomic energy  EATOM  =      4244.20348233
  Solvation  Ediel_sol  =         0.00000000
  ---------------------------------------------------
  free energy    TOTEN  =       -45.03457837 eV

  energy without entropy =      -44.87360190  energy(sigma->0) =      -44.95409013


--------------------------------------------------------------------------------------------------------




--------------------------------------- Iteration      1(  14)  ---------------------------------------


    POTLOK:  cpu time      0.3180: real time      0.3188
    SETDIJ:  cpu time      0.1789: real time      0.1794
     EDDAV:  cpu time      2.3119: real time      2.7794
       DOS:  cpu time      0.0146: real time      0.0146
    CHARGE:  cpu time      0.1087: real time      0.1090
    MIXING:  cpu time      0.0348: real time      0.0349
    --------------------------------------------
      LOOP:  cpu time      2.9669: real time      3.4360

 eigenvalue-minimisations  :   144
 total energy-change (2. order) : 0.3703532E-02  (-0.2415381E-01)
 number of electron      71.9999968 magnetization 
 augmentation part        6.8434535 magnetization 

 Broyden mixing:
  rms(total) = 0.14057E+00    rms(broyden)= 0.13965E+00
  rms(prec ) = 0.16037E+00
  weight for this iteration     100.00

 eigenvalues of (default mixing * dielectric matrix)
  average eigenvalue GAMMA=   0.7533
  1.8732  1.5452  0.9221  0.7901  0.3927  0.3927  0.3336  0.3919  0.1379

 Free energy of the ion-electron system (eV)
  ---------------------------------------------------
  alpha Z        PSCENC =         3.99825575
  Ewald energy   TEWEN  =      3452.17801569
  -Hartree energ DENC   =     -6875.54054802
  -exchange      EXHF   =         0.00000000
  -V(xc)+E(xc)   XCENC  =        84.70482688
  PAW double counting   =      5325.02359843    -5147.12539830
  entropy T*S    EENTRO =        -0.15701352
  eigenvalues    EBANDS =     -1132.31609407
  atomic energy  EATOM  =      4244.20348233
  Solvation  Ediel_sol  =         0.00000000
  ---------------------------------------------------
  free energy    TOTEN  =       -45.03087483 eV

  energy without entropy =      -44.87386131  energy(sigma->0) =      -44.95236807


--------------------------------------------------------------------------------------------------------




--------------------------------------- Iteration      1(  15)  ---------------------------------------


    POTLOK:  cpu time      0.6822: real time      0.7064
    SETDIJ:  cpu time      0.2481: real time      0.2486
     EDDAV:  cpu time      3.8007: real time      3.8099
       DOS:  cpu time      0.0007: real time      0.0007
    CHARGE:  cpu time      0.1026: real time      0.1029
    MIXING:  cpu time      0.0924: real time      0.0926
    --------------------------------------------
      LOOP:  cpu time      4.9266: real time      4.9612

 eigenvalue-minimisations  :   128
 total energy-change (2. order) : 0.1010971E-01  (-0.1068494E-01)
 number of electron      71.9999972 magnetization 
 augmentation part        6.9196270 magnetization 

 Broyden mixing:
  rms(total) = 0.82707E-01    rms(broyden)= 0.82298E-01
  rms(prec ) = 0.94316E-01
  weight for this iteration     100.00

 eigenvalues of (default mixing * dielectric matrix)
  average eigenvalue GAMMA=   0.7700
  2.1218  1.4440  1.2148  0.7304  0.1379  0.5421  0.3854  0.3854  0.3294  0.4092

 Free energy of the ion-electron system (eV)
  ---------------------------------------------------
  alpha Z        PSCENC =         3.99825575
  Ewald energy   TEWEN  =      3452.17801569
  -Hartree energ DENC   =     -6878.37558180
  -exchange      EXHF   =         0.00000000
  -V(xc)+E(xc)   XCENC  =        84.79178074
  PAW double counting   =      5347.22509425    -5168.73640228
  entropy T*S    EENTRO =        -0.15694570
  eigenvalues    EBANDS =     -1130.14846410
  atomic energy  EATOM  =      4244.20348233
  Solvation  Ediel_sol  =         0.00000000
  ---------------------------------------------------
  free energy    TOTEN  =       -45.02076512 eV

  energy without entropy =      -44.86381942  energy(sigma->0) =      -44.94229227


--------------------------------------------------------------------------------------------------------




--------------------------------------- Iteration      1(  16)  ---------------------------------------


    POTLOK:  cpu time      0.4809: real time      0.4820
    SETDIJ:  cpu time      0.2762: real time      0.2769
     EDDAV:  cpu time      2.6670: real time      3.1614
       DOS:  cpu time      0.0127: real time      0.0127
    CHARGE:  cpu time      0.0981: real time      0.0983
    MIXING:  cpu time      0.0315: real time      0.0316
    --------------------------------------------
      LOOP:  cpu time      3.5664: real time      4.0630

 eigenvalue-minimisations  :   136
 total energy-change (2. order) :-0.3995532E-02  (-0.4503060E-02)
 number of electron      71.9999968 magnetization 
 augmentation part        6.8683406 magnetization 

 Broyden mixing:
  rms(total) = 0.61203E-01    rms(broyden)= 0.60884E-01
  rms(prec ) = 0.67800E-01
  weight for this iteration     100.00

 eigenvalues of (default mixing * dielectric matrix)
  average eigenvalue GAMMA=   0.8066
  2.2071  1.6884  1.4190  0.7288  0.7288  0.1379  0.5268  0.3776  0.3776  0.3581
  0.3229

 Free energy of the ion-electron system (eV)
  ---------------------------------------------------
  alpha Z        PSCENC =         3.99825575
  Ewald energy   TEWEN  =      3452.17801569
  -Hartree energ DENC   =     -6881.52812078
  -exchange      EXHF   =         0.00000000
  -V(xc)+E(xc)   XCENC  =        84.87275429
  PAW double counting   =      5355.10055222    -5176.29913415
  entropy T*S    EENTRO =        -0.15561050
  eigenvalues    EBANDS =     -1127.39495550
  atomic energy  EATOM  =      4244.20348233
  Solvation  Ediel_sol  =         0.00000000
  ---------------------------------------------------
  free energy    TOTEN  =       -45.02476065 eV

  energy without entropy =      -44.86915015  energy(sigma->0) =      -44.94695540


--------------------------------------------------------------------------------------------------------




--------------------------------------- Iteration      1(  17)  ---------------------------------------


    POTLOK:  cpu time      0.4970: real time      0.4982
    SETDIJ:  cpu time      0.1893: real time      0.1898
     EDDAV:  cpu time      1.9301: real time      1.9348
       DOS:  cpu time      0.0167: real time      0.0167
    CHARGE:  cpu time      0.1475: real time      0.1479
    MIXING:  cpu time      0.3101: real time      0.3109
    --------------------------------------------
      LOOP:  cpu time      3.0907: real time      3.0982

 eigenvalue-minimisations  :   128
 total energy-change (2. order) :-0.4733514E-02  (-0.1418344E-02)
 number of electron      71.9999969 magnetization 
 augmentation part        6.8811740 magnetization 

 Broyden mixing:
  rms(total) = 0.51477E-01    rms(broyden)= 0.51173E-01
  rms(prec ) = 0.58879E-01
  weight for this iteration     100.00

 eigenvalues of (default mixing * dielectric matrix)
  average eigenvalue GAMMA=   0.8373
  2.1997  2.1997  1.3344  0.8511  0.8511  0.6121  0.1379  0.3871  0.3871  0.3985
  0.3676  0.3211

 Free energy of the ion-electron system (eV)
  ---------------------------------------------------
  alpha Z        PSCENC =         3.99825575
  Ewald energy   TEWEN  =      3452.17801569
  -Hartree energ DENC   =     -6883.90630593
  -exchange      EXHF   =         0.00000000
  -V(xc)+E(xc)   XCENC  =        84.93192017
  PAW double counting   =      5352.59409188    -5173.55042191
  entropy T*S    EENTRO =        -0.15349599
  eigenvalues    EBANDS =     -1125.32503616
  atomic energy  EATOM  =      4244.20348233
  Solvation  Ediel_sol  =         0.00000000
  ---------------------------------------------------
  free energy    TOTEN  =       -45.02949417 eV

  energy without entropy =      -44.87599818  energy(sigma->0) =      -44.95274617


--------------------------------------------------------------------------------------------------------




--------------------------------------- Iteration      1(  18)  ---------------------------------------


    POTLOK:  cpu time      0.6127: real time      0.6142
    SETDIJ:  cpu time      0.5862: real time      0.5876
     EDDAV:  cpu time      2.8229: real time      2.8307
       DOS:  cpu time      0.0150: real time      0.0151
    CHARGE:  cpu time      0.1091: real time      0.1094
    MIXING:  cpu time      0.0338: real time      0.0339
    --------------------------------------------
      LOOP:  cpu time      4.1797: real time      4.1908

 eigenvalue-minimisations  :   136
 total energy-change (2. order) :-0.4952003E-02  (-0.5636155E-03)
 number of electron      71.9999968 magnetization 
 augmentation part        6.8907514 magnetization 

 Broyden mixing:
  rms(total) = 0.57778E-01    rms(broyden)= 0.57488E-01
  rms(prec ) = 0.67754E-01
  weight for this iteration     100.00

 eigenvalues of (default mixing * dielectric matrix)
  average eigenvalue GAMMA=   0.9086
  2.5975  2.5538  1.4845  1.0206  1.0206  0.6185  0.1379  0.4692  0.4692  0.3781
  0.3781  0.3633  0.3206

 Free energy of the ion-electron system (eV)
  ---------------------------------------------------
  alpha Z        PSCENC =         3.99825575
  Ewald energy   TEWEN  =      3452.17801569
  -Hartree energ DENC   =     -6886.20256031
  -exchange      EXHF   =         0.00000000
  -V(xc)+E(xc)   XCENC  =        84.98175212
  PAW double counting   =      5349.40353840    -5170.12238761
  entropy T*S    EENTRO =        -0.15220996
  eigenvalues    EBANDS =     -1123.32233259
  atomic energy  EATOM  =      4244.20348233
  Solvation  Ediel_sol  =         0.00000000
  ---------------------------------------------------
  free energy    TOTEN  =       -45.03444617 eV

  energy without entropy =      -44.88223621  energy(sigma->0) =      -44.95834119


--------------------------------------------------------------------------------------------------------




--------------------------------------- Iteration      1(  19)  ---------------------------------------


    POTLOK:  cpu time      0.4175: real time      0.4193
    SETDIJ:  cpu time      0.5922: real time      0.5936
     EDDAV:  cpu time      2.6882: real time      2.6957
       DOS:  cpu time      0.0131: real time      0.0131
    CHARGE:  cpu time      0.1107: real time      0.1109
    MIXING:  cpu time      0.1000: real time      0.1003
    --------------------------------------------
      LOOP:  cpu time      3.9217: real time      3.9330

 eigenvalue-minimisations  :   136
 total energy-change (2. order) :-0.6764024E-02  (-0.5691814E-03)
 number of electron      71.9999967 magnetization 
 augmentation part        6.9018531 magnetization 

 Broyden mixing:
  rms(total) = 0.71499E-01    rms(broyden)= 0.71222E-01
  rms(prec ) = 0.86723E-01
  weight for this iteration     100.00

 eigenvalues of (default mixing * dielectric matrix)
  average eigenvalue GAMMA=   0.9536
  2.8839  2.8839  1.5837  1.1081  1.1081  0.5981  0.5981  0.6160  0.1379  0.3768
  0.3768  0.4166  0.3429  0.3196

 Free energy of the ion-electron system (eV)
  ---------------------------------------------------
  alpha Z        PSCENC =         3.99825575
  Ewald energy   TEWEN  =      3452.17801569
  -Hartree energ DENC   =     -6888.47037195
  -exchange      EXHF   =         0.00000000
  -V(xc)+E(xc)   XCENC  =        85.02388557
  PAW double counting   =      5344.79897517    -5165.38538765
  entropy T*S    EENTRO =        -0.14859937
  eigenvalues    EBANDS =     -1121.23946574
  atomic energy  EATOM  =      4244.20348233
  Solvation  Ediel_sol  =         0.00000000
  ---------------------------------------------------
  free energy    TOTEN  =       -45.04121020 eV

  energy without entropy =      -44.89261083  energy(sigma->0) =      -44.96691051


--------------------------------------------------------------------------------------------------------




--------------------------------------- Iteration      1(  20)  ---------------------------------------


    POTLOK:  cpu time      0.5193: real time      0.5846
    SETDIJ:  cpu time      0.0313: real time      0.1664
     EDDAV:  cpu time      2.1323: real time      2.4085
       DOS:  cpu time      0.2231: real time      0.2236
    CHARGE:  cpu time      0.0945: real time      0.0947
    MIXING:  cpu time      0.0352: real time      0.0353
    --------------------------------------------
      LOOP:  cpu time      3.0357: real time      3.5131

 eigenvalue-minimisations  :   112
 total energy-change (2. order) :-0.4528056E-02  (-0.3162815E-03)
 number of electron      71.9999966 magnetization 
 augmentation part        6.9108827 magnetization 

 Broyden mixing:
  rms(total) = 0.75565E-01    rms(broyden)= 0.75338E-01
  rms(prec ) = 0.92396E-01
  weight for this iteration     100.00

 eigenvalues of (default mixing * dielectric matrix)
  average eigenvalue GAMMA=   1.0395
  3.3417  3.3417  1.6687  1.3258  1.3258  0.7782  0.6939  0.6939  0.1379  0.4239
  0.4239  0.3838  0.3838  0.3486  0.3204

 Free energy of the ion-electron system (eV)
  ---------------------------------------------------
  alpha Z        PSCENC =         3.99825575
  Ewald energy   TEWEN  =      3452.17801569
  -Hartree energ DENC   =     -6889.68788725
  -exchange      EXHF   =         0.00000000
  -V(xc)+E(xc)   XCENC  =        85.04253820
  PAW double counting   =      5339.99311602    -5160.57203967
  entropy T*S    EENTRO =        -0.14645660
  eigenvalues    EBANDS =     -1120.05476273
  atomic energy  EATOM  =      4244.20348233
  Solvation  Ediel_sol  =         0.00000000
  ---------------------------------------------------
  free energy    TOTEN  =       -45.04573825 eV

  energy without entropy =      -44.89928166  energy(sigma->0) =      -44.97250995


--------------------------------------------------------------------------------------------------------




--------------------------------------- Iteration      1(  21)  ---------------------------------------


    POTLOK:  cpu time      0.7345: real time      0.7380
    SETDIJ:  cpu time      0.3709: real time      0.3718
     EDDAV:  cpu time      2.0767: real time      2.0817
       DOS:  cpu time      0.0152: real time      0.0153
    CHARGE:  cpu time      0.1217: real time      0.1220
    MIXING:  cpu time      0.0236: real time      0.0237
    --------------------------------------------
      LOOP:  cpu time      3.3426: real time      3.3525

 eigenvalue-minimisations  :   112
 total energy-change (2. order) :-0.4279874E-02  (-0.1073123E-02)
 number of electron      71.9999964 magnetization 
 augmentation part        6.8752651 magnetization 

 Broyden mixing:
  rms(total) = 0.36521E-01    rms(broyden)= 0.36228E-01
  rms(prec ) = 0.40918E-01
  weight for this iteration     100.00

 eigenvalues of (default mixing * dielectric matrix)
  average eigenvalue GAMMA=   1.1360
  4.0187  4.0187  2.2243  1.3994  1.0238  1.0238  0.8373  0.6889  0.1379  0.5571
  0.4358  0.3810  0.3810  0.3881  0.3195  0.3412

 Free energy of the ion-electron system (eV)
  ---------------------------------------------------
  alpha Z        PSCENC =         3.99825575
  Ewald energy   TEWEN  =      3452.17801569
  -Hartree energ DENC   =     -6890.97194707
  -exchange      EXHF   =         0.00000000
  -V(xc)+E(xc)   XCENC  =        85.05968111
  PAW double counting   =      5338.76556030    -5159.35671768
  entropy T*S    EENTRO =        -0.14448067
  eigenvalues    EBANDS =     -1118.78186789
  atomic energy  EATOM  =      4244.20348233
  Solvation  Ediel_sol  =         0.00000000
  ---------------------------------------------------
  free energy    TOTEN  =       -45.05001813 eV

  energy without entropy =      -44.90553746  energy(sigma->0) =      -44.97777779


--------------------------------------------------------------------------------------------------------




--------------------------------------- Iteration      1(  22)  ---------------------------------------


    POTLOK:  cpu time      0.3650: real time      0.3662
    SETDIJ:  cpu time      0.1765: real time      0.1769
     EDDAV:  cpu time      2.4581: real time      2.6631
       DOS:  cpu time      0.0132: real time      0.0133
    CHARGE:  cpu time      0.1059: real time      0.1061
    MIXING:  cpu time      0.1166: real time      0.1169
    --------------------------------------------
      LOOP:  cpu time      3.2354: real time      3.4424

 eigenvalue-minimisations  :   128
 total energy-change (2. order) :-0.4373077E-02  (-0.5595251E-03)
 number of electron      71.9999963 magnetization 
 augmentation part        6.8675874 magnetization 

 Broyden mixing:
  rms(total) = 0.21890E-01    rms(broyden)= 0.21341E-01
  rms(prec ) = 0.24379E-01
  weight for this iteration     100.00

 eigenvalues of (default mixing * dielectric matrix)
  average eigenvalue GAMMA=   1.1619
  4.3832  4.3832  2.2272  1.2774  1.2774  1.0247  1.0247  0.6298  0.6298  0.1379
  0.4755  0.4755  0.3815  0.3815  0.3800  0.3197  0.3444

 Free energy of the ion-electron system (eV)
  ---------------------------------------------------
  alpha Z        PSCENC =         3.99825575
  Ewald energy   TEWEN  =      3452.17801569
  -Hartree energ DENC   =     -6892.12460034
  -exchange      EXHF   =         0.00000000
  -V(xc)+E(xc)   XCENC  =        85.07211375
  PAW double counting   =      5341.29449332    -5161.88550922
  entropy T*S    EENTRO =        -0.14316322
  eigenvalues    EBANDS =     -1117.64747927
  atomic energy  EATOM  =      4244.20348233
  Solvation  Ediel_sol  =         0.00000000
  ---------------------------------------------------
  free energy    TOTEN  =       -45.05439120 eV

  energy without entropy =      -44.91122798  energy(sigma->0) =      -44.98280959


--------------------------------------------------------------------------------------------------------




--------------------------------------- Iteration      1(  23)  ---------------------------------------


    POTLOK:  cpu time      0.6098: real time      0.6556
    SETDIJ:  cpu time      0.1430: real time      0.1433
     EDDAV:  cpu time      2.4038: real time      2.7446
       DOS:  cpu time      0.0115: real time      0.0115
    CHARGE:  cpu time      0.0899: real time      0.0902
    MIXING:  cpu time      0.0706: real time      0.0708
    --------------------------------------------
      LOOP:  cpu time      3.3286: real time      3.7160

 eigenvalue-minimisations  :   128
 total energy-change (2. order) :-0.2140599E-02  (-0.1790544E-03)
 number of electron      71.9999963 magnetization 
 augmentation part        6.8852714 magnetization 

 Broyden mixing:
  rms(total) = 0.30280E-01    rms(broyden)= 0.30199E-01
  rms(prec ) = 0.37402E-01
  weight for this iteration     100.00

 eigenvalues of (default mixing * dielectric matrix)
  average eigenvalue GAMMA=   1.1808
  4.6795  4.6795  2.2804  1.6101  1.2000  1.0222  1.0222  0.6769  0.5925  0.5925
  0.1379  0.4896  0.4777  0.3811  0.3811  0.3196  0.3688  0.3426

 Free energy of the ion-electron system (eV)
  ---------------------------------------------------
  alpha Z        PSCENC =         3.99825575
  Ewald energy   TEWEN  =      3452.17801569
  -Hartree energ DENC   =     -6891.91265425
  -exchange      EXHF   =         0.00000000
  -V(xc)+E(xc)   XCENC  =        85.06367430
  PAW double counting   =      5341.21479592    -5161.85573047
  entropy T*S    EENTRO =        -0.14206558
  eigenvalues    EBANDS =     -1117.80430551
  atomic energy  EATOM  =      4244.20348233
  Solvation  Ediel_sol  =         0.00000000
  ---------------------------------------------------
  free energy    TOTEN  =       -45.05653180 eV

  energy without entropy =      -44.91446622  energy(sigma->0) =      -44.98549901


[...]
 augmentation part        7.2377501 magnetization 

 Broyden mixing:
  rms(total) = 0.36713E-02    rms(broyden)= 0.36648E-02
  rms(prec ) = 0.39876E-02
  weight for this iteration     100.00

 eigenvalues of (default mixing * dielectric matrix)
  average eigenvalue GAMMA=   0.8829
  1.4435  0.3224

 Free energy of the ion-electron system (eV)
  ---------------------------------------------------
  alpha Z        PSCENC =         3.99825575
  Ewald energy   TEWEN  =      6218.27683821
  -Hartree energ DENC   =     -9661.71720904
  -exchange      EXHF   =         0.00000000
  -V(xc)+E(xc)   XCENC  =        97.82912089
  PAW double counting   =      6594.56461781    -6416.42070518
  entropy T*S    EENTRO =        -0.00019395
  eigenvalues    EBANDS =     -1175.88979645
  atomic energy  EATOM  =      4244.20348233
  Solvation  Ediel_sol  =         0.00000000
  ---------------------------------------------------
  free energy    TOTEN  =       -95.15558964 eV

  energy without entropy =      -95.15539569  energy(sigma->0) =      -95.15549266


--------------------------------------------------------------------------------------------------------




--------------------------------------- Iteration    104(   4)  ---------------------------------------


    POTLOK:  cpu time      0.4215: real time      0.4225
    SETDIJ:  cpu time      0.1718: real time      0.1722
     EDDAV:  cpu time      1.6599: real time      1.6640
       DOS:  cpu time      0.0101: real time      0.0101
    --------------------------------------------
      LOOP:  cpu time      2.2633: real time      2.2687

 eigenvalue-minimisations  :    88
 total energy-change (2. order) :-0.2403798E-04  (-0.1742968E-04)
 number of electron      71.9999998 magnetization 
 augmentation part        7.2377501 magnetization 

 Free energy of the ion-electron system (eV)
  ---------------------------------------------------
  alpha Z        PSCENC =         3.99825575
  Ewald energy   TEWEN  =      6218.27683821
  -Hartree energ DENC   =     -9661.66968549
  -exchange      EXHF   =         0.00000000
  -V(xc)+E(xc)   XCENC  =        97.82759281
  PAW double counting   =      6595.79698571    -6417.63882549
  entropy T*S    EENTRO =        -0.00019872
  eigenvalues    EBANDS =     -1175.95005878
  atomic energy  EATOM  =      4244.20348233
  Solvation  Ediel_sol  =         0.00000000
  ---------------------------------------------------
  free energy    TOTEN  =       -95.15561368 eV

  energy without entropy =      -95.15541496  energy(sigma->0) =      -95.15551432


--------------------------------------------------------------------------------------------------------




 average (electrostatic) potential at core
  the test charge radii are     1.0397  1.0406  0.7672
  (the norm of the test charge is              1.0000)
       1 -85.1561       2 -85.1938       3 -84.7103       4 -84.4326       5 -84.3645
       6 -84.4917       7 -36.1266       8 -36.2465       9 -35.8555      10 -36.1814
      11 -36.0771      12 -35.9740      13 -36.1030      14 -36.1256      15 -36.5371
      16 -36.0214      17 -36.2751      18 -36.1042
 
 
 
 E-fermi :  -4.0396     XC(G=0):  -0.6098     alpha+bet : -0.3659

 Fermi energy:        -4.0395741814

 k-point     1 :       0.0000    0.0000    0.0000
  band No.  band energies     occupation 
      1     -61.1464      2.00000
      2     -61.1218      2.00000
      3     -37.6899      2.00000
      4     -37.5405      2.00000
      5     -37.5242      2.00000
      6     -37.4820      2.00000
      7     -37.3253      2.00000
      8     -37.2717      2.00000
      9     -16.9363      2.00000
     10     -16.1389      2.00000
     11     -14.7341      2.00000
     12     -13.3679      2.00000
     13     -12.4910      2.00000
     14     -11.7334      2.00000
     15     -11.3212      2.00000
     16     -10.2574      2.00000
     17      -9.7136      2.00000
     18      -9.1715      2.00000
     19      -8.7186      2.00000
     20      -8.4222      2.00000
     21      -7.7083      2.00000
     22      -7.5936      2.00000
     23      -7.2738      2.00000
     24      -7.0886      2.00000
     25      -6.9532      2.00000
     26      -6.7607      2.00000
     27      -6.3720      2.00000
     28      -6.0483      2.00000
     29      -5.9291      2.00000
     30      -5.6967      2.00000
     31      -5.5957      2.00000
     32      -5.3737      2.00000
     33      -5.3378      2.00000
     34      -5.1708      2.00000
     35      -4.6736      2.00000
     36      -4.2914      1.99963
     37      -3.7877      0.00037
     38      -3.6136      0.00000
     39      -3.2243      0.00000
     40      -3.1108      0.00000
     41      -3.0531      0.00000
     42      -3.0122      0.00000
     43      -2.7841      0.00000
     44      -2.7148      0.00000
     45      -2.2761      0.00000
     46      -2.1745      0.00000
     47      -1.9111      0.00000
     48      -1.5314      0.00000


--------------------------------------------------------------------------------------------------------


 soft charge-density along one line, spin component           1
         0         1         2         3         4         5         6         7         8         9
 total charge-density along one line
 
 pseudopotential strength for first ion, spin component:           1
 -2.197 -26.578  -0.026   0.004  -0.002   0.006   0.002  -0.003
-26.578  13.361   0.034  -0.012   0.008  -0.003   0.000   0.000
 -0.026   0.034 -30.242   0.053  -0.058  12.498  -0.034   0.038
  0.004  -0.012   0.053 -30.224  -0.057  -0.034  12.487   0.038
 -0.002   0.008  -0.058  -0.057 -30.139   0.038   0.038  12.430
  0.006  -0.003  12.498  -0.034   0.038   4.147   0.013  -0.016
  0.002   0.000  -0.034  12.487   0.038   0.013   4.146  -0.017
 -0.003   0.000   0.038   0.038  12.430  -0.016  -0.017   4.173
 -0.043  -0.010   0.008   0.001  -0.007  -0.004  -0.001   0.004
  0.039   0.011  -0.006  -0.003   0.001   0.002   0.004  -0.001
 -0.016   0.001   0.000   0.005  -0.007  -0.001  -0.002   0.003
 -0.042  -0.009   0.001  -0.003  -0.008  -0.001   0.000   0.003
  0.037   0.011  -0.003  -0.001   0.000  -0.002   0.000   0.000
 -0.053  -0.011   0.010   0.001  -0.010  -0.005  -0.001   0.008
  0.048   0.012  -0.007  -0.005   0.001   0.002   0.007  -0.001
 -0.020   0.001   0.001   0.006  -0.008  -0.003  -0.003   0.003
 -0.052  -0.010   0.001  -0.004  -0.009  -0.001   0.001   0.003
  0.046   0.013  -0.002  -0.001   0.000  -0.005   0.000   0.001
 total augmentation occupancy for first ion, spin component:           1
  1.998  -0.030  -0.005   0.002  -0.001  -0.011   0.004  -0.002  -0.017   0.004  -0.014  -0.022   0.004   0.018  -0.007   0.012
 -0.030   1.268  -0.038   0.013  -0.008   0.204  -0.075   0.035  -0.272   0.108   0.086  -0.267   0.091   0.183  -0.078  -0.069
 -0.005  -0.038   1.987  -0.001   0.000  -0.026  -0.002   0.000  -0.026   0.024   0.029   0.002   0.056   0.020  -0.018  -0.019
  0.002   0.013  -0.001   1.985  -0.000  -0.002  -0.032  -0.001   0.003  -0.032  -0.008   0.004  -0.002  -0.003   0.017   0.011
 -0.001  -0.008   0.000  -0.000   1.985   0.000  -0.001  -0.031  -0.025   0.003   0.017   0.019  -0.001   0.010  -0.003  -0.014
 -0.011   0.204  -0.026  -0.002   0.000   0.083   0.018  -0.022  -0.038  -0.013  -0.154   0.068  -0.194   0.035  -0.005   0.085
  0.004  -0.075  -0.002  -0.032  -0.001   0.018   0.117  -0.016   0.031   0.371  -0.295   0.163  -0.008  -0.024  -0.220   0.170
 -0.002   0.035   0.000  -0.001  -0.031  -0.022  -0.016   0.116   0.469   0.028   0.107  -0.029   0.064  -0.256  -0.023  -0.058
 -0.017  -0.272  -0.026   0.003  -0.025  -0.038   0.031   0.469   3.260  -0.028   0.411   0.724  -0.116  -1.749  -0.056  -0.219
  0.004   0.108   0.024  -0.032   0.003  -0.013   0.371   0.028  -0.028   2.958  -0.491  -0.288   0.053  -0.057  -1.662   0.280
 -0.014   0.086   0.029  -0.008   0.017  -0.154  -0.295   0.107   0.411  -0.491   3.139  -0.472  -0.082  -0.227   0.273  -1.615
 -0.022  -0.267   0.002   0.004   0.019   0.068   0.163  -0.029   0.724  -0.288  -0.472   2.963  -0.237  -0.319   0.176   0.258
  0.004   0.091   0.056  -0.002  -0.001  -0.194  -0.008   0.064  -0.116   0.053  -0.082  -0.237   2.530   0.043   0.039   0.060
  0.018   0.183   0.020  -0.003   0.010   0.035  -0.024  -0.256  -1.749  -0.057  -0.227  -0.319   0.043   0.978   0.067   0.130
 -0.007  -0.078  -0.018   0.017  -0.003  -0.005  -0.220  -0.023  -0.056  -1.662   0.273   0.176   0.039   0.067   0.974  -0.176
  0.012  -0.069  -0.019   0.011  -0.014   0.085   0.170  -0.058  -0.219   0.280  -1.615   0.258   0.060   0.130  -0.176   0.875
  0.022   0.145  -0.003  -0.006  -0.013  -0.044  -0.081   0.032  -0.323   0.169   0.260  -1.470   0.177   0.141  -0.095  -0.156
 -0.006  -0.027  -0.039   0.002  -0.001   0.112   0.021  -0.040   0.046   0.027   0.052   0.170  -1.148  -0.003  -0.047  -0.016


------------------------ aborting loop because EDIFF is reached ----------------------------------------





 total charge

# of ion       s       p       d       tot
------------------------------------------
    1        2.189   6.115   2.072  10.376
    2        2.162   6.137   2.014  10.313
    3        0.496   0.314   0.000   0.810
    4        0.575   0.203   0.000   0.778
    5        0.427   0.397   0.000   0.824
    6        0.451   0.367   0.000   0.818
    7        0.723   1.244   0.000   1.966
    8        0.704   1.285   0.000   1.989
    9        0.733   1.205   0.000   1.938
   10        0.719   1.275   0.000   1.994
   11        0.739   1.302   0.000   2.040
   12        0.725   1.180   0.000   1.905
   13        0.772   1.182   0.000   1.955
   14        0.732   1.267   0.000   1.999
   15        0.708   1.218   0.000   1.927
   16        0.736   1.186   0.000   1.922
   17        0.741   1.327   0.000   2.069
   18        0.727   1.253   0.000   1.980
--------------------------------------------------
tot         15.061  28.456   4.085  47.603
 
    CHARGE:  cpu time      0.0330: real time      0.1311
    FORLOC:  cpu time      0.0159: real time      0.0799
    FORNL :  cpu time      0.2125: real time      0.2380
    STRESS:  cpu time      0.5326: real time      0.6938
    FORCOR:  cpu time      0.4401: real time      0.4702
    FORHAR:  cpu time      0.1888: real time      0.1893
    MIXING:  cpu time      0.0195: real time      0.0195
    OFIELD:  cpu time      0.0000: real time      0.0000

  FORCE on cell =-STRESS in cart. coord.  units (eV):
  Direction    XX          YY          ZZ          XY          YZ          ZX
  --------------------------------------------------------------------------------------
  Alpha Z     3.99826     3.99826     3.99826
  Ewald    2024.30524  2227.69811  1966.27123   302.89173    21.12227  -726.92701
  Hartree  3156.38512  3306.42005  3199.69333   252.06592   -13.96297  -619.15471
  E(xc)    -271.87988  -272.12209  -272.34372    -0.24791     0.28799    -0.30503
  Local   -5834.97347 -6180.62494 -5820.42211  -558.23753    -3.92843  1352.02675
  n-local    15.59814    16.44920    20.25747     4.23279     0.71672     1.68650
  augment   127.03251   123.29773   123.76018    -0.49847     0.06653    -2.04265
  Kinetic   778.67310   773.88054   778.04188    -0.25541    -4.20757    -5.36966
  Fock        0.00000     0.00000     0.00000     0.00000     0.00000     0.00000
  -------------------------------------------------------------------------------------
  Total      -0.86100    -1.00315    -0.74349    -0.04888     0.09455    -0.08583
  in kB      -0.17553    -0.20452    -0.15158    -0.00997     0.01928    -0.01750
  external pressure =       -0.18 kB  Pullay stress =        0.00 kB


 VOLUME and BASIS-vectors are now :
 -----------------------------------------------------------------------------
  energy-cutoff  :      318.61
  volume of cell :     7858.69
      direct lattice vectors                 reciprocal lattice vectors
    20.738775471  0.000000000  0.000000000     0.048218855  0.000000000  0.000000000
     0.000000000 20.180822440  0.000000000     0.000000000  0.049551994  0.000000000
     0.000000000  0.000000000 18.777092164     0.000000000  0.000000000  0.053256382

  length of vectors
    20.738775471 20.180822440 18.777092164     0.048218855  0.049551994  0.053256382


 FORCES acting on ions
    electron-ion (+dipol)            ewald-force                    non-local-force                 convergence-correction
 -----------------------------------------------------------------------------------------------
   0.146E+03 0.748E+03 -.246E+03   -.144E+03 -.740E+03 0.243E+03   -.197E+01 -.878E+01 0.313E+01   0.386E-02 -.625E-01 0.270E-03
   0.149E+02 -.582E+03 0.430E+02   -.147E+02 0.578E+03 -.423E+02   -.192E+00 0.477E+01 -.741E+00   -.663E-02 -.281E-01 0.253E-02
   -.108E+03 -.124E+03 -.335E+02   0.105E+03 0.121E+03 0.304E+02   0.323E+01 0.309E+01 0.312E+01   0.100E-01 0.227E-02 -.124E-02
   -.781E+02 0.863E+02 0.965E+02   0.781E+02 -.875E+02 -.965E+02   -.316E-01 0.118E+01 -.276E-01   0.408E-03 -.179E-02 0.204E-02
   -.196E+03 0.101E+03 -.287E+02   0.191E+03 -.980E+02 0.287E+02   0.481E+01 -.289E+01 0.239E-01   0.788E-02 -.137E-01 -.175E-02
   -.149E+03 -.482E+02 -.120E+03   0.146E+03 0.467E+02 0.116E+03   0.379E+01 0.154E+01 0.373E+01   0.125E-01 -.545E-02 0.557E-02
   0.343E+02 -.210E+02 -.258E+03   -.330E+02 0.219E+02 0.258E+03   -.137E+01 -.913E+00 -.334E+00   -.604E-02 -.174E-01 0.185E-01
   -.777E+02 0.423E+02 0.177E+03   0.776E+02 -.412E+02 -.180E+03   0.140E+00 -.107E+01 0.301E+01   0.862E-02 -.194E-01 -.164E-01
   -.641E+02 0.179E+03 0.122E+03   0.630E+02 -.184E+03 -.122E+03   0.115E+01 0.454E+01 -.153E+00   0.311E-02 -.119E-01 -.495E-02
   0.226E+03 0.313E+02 0.144E+03   -.225E+03 -.307E+02 -.146E+03   -.104E+01 -.533E+00 0.151E+01   -.192E-01 -.232E-01 -.918E-02
   0.864E+02 0.688E+02 0.216E+03   -.885E+02 -.681E+02 -.215E+03   0.207E+01 -.670E+00 -.104E+01   -.434E-02 -.280E-01 -.164E-01
   -.138E+03 0.260E+02 -.201E+03   0.137E+03 -.260E+02 0.201E+03   0.135E+01 0.247E-02 0.213E+00   0.946E-02 -.215E-01 0.184E-01
   -.522E+02 -.606E+02 0.204E+03   0.515E+02 0.615E+02 -.207E+03   0.678E+00 -.886E+00 0.281E+01   0.105E-01 -.658E-02 -.127E-01
   0.234E+03 -.134E+03 0.394E+02   -.232E+03 0.135E+03 -.403E+02   -.147E+01 -.168E+01 0.100E+01   -.298E-01 -.917E-02 0.582E-02
   -.187E+03 -.369E+02 0.204E+02   0.188E+03 0.379E+02 -.188E+02   -.406E+00 -.104E+01 -.157E+01   0.299E-01 -.716E-02 -.107E-01
   -.717E+02 -.175E+03 0.882E+02   0.709E+02 0.175E+03 -.897E+02   0.759E+00 -.668E+00 0.147E+01   0.152E-01 0.443E-02 -.854E-02
   0.233E+03 0.548E+02 -.110E+03   -.232E+03 -.575E+02 0.111E+03   -.115E+01 0.284E+01 -.177E+00   -.112E-01 -.145E-01 0.851E-02
   0.139E+03 -.154E+03 -.169E+03   -.137E+03 0.155E+03 0.169E+03   -.183E+01 -.126E+01 -.173E+00   -.194E-01 -.867E-02 0.146E-01
 -----------------------------------------------------------------------------------------------
   -.852E+01 0.273E+01 -.158E+02   0.853E-13 -.142E-12 0.142E-12   0.852E+01 -.243E+01 0.158E+02   0.148E-01 -.272E+00 -.559E-02
 
 
 POSITION                                       TOTAL-FORCE (eV/Angst)
 -----------------------------------------------------------------------------------
      9.58260      7.80651     10.27327        -0.010537     -0.020967      0.032981
     10.00789     10.61374      9.64021        -0.020644      0.004145     -0.008444
     13.01383     12.56922      9.68883        -0.012565      0.023089      0.016036
     12.25613      7.16940      6.96207        -0.010720      0.017883     -0.037328
     12.15394      8.50078      9.77670         0.007176      0.010729      0.015086
     12.59466     10.53030     11.11492        -0.005910      0.006004      0.000633
      9.38432      9.69921     11.73899        -0.044449      0.012219     -0.003579
     11.12622      9.32995      7.84937         0.046605      0.019125     -0.028621
     10.76515      7.66794      8.36613         0.015436     -0.044223     -0.014534
      8.21069      9.33030      9.01811        -0.032149     -0.010575     -0.022330
      9.56938      8.81511      8.33923         0.007736      0.003783     -0.025552
     10.88863      9.26285     11.34165         0.033019     -0.004021      0.021673
     11.55217     10.75497      7.28450        -0.008302     -0.045194     -0.005839
      7.71499     10.64306      9.86011         0.001460      0.033727      0.059104
     12.15475     10.58263      8.91355         0.032279     -0.003471      0.034538
     11.97722     12.02668      8.05952         0.001327     -0.006027     -0.027524
      8.09412      9.26917     10.69180        -0.010921      0.038082      0.035472
      8.28807     10.80916     11.31322         0.011159     -0.034310     -0.041774
 -----------------------------------------------------------------------------------
    total drift:                                0.006761      0.024324     -0.010744


--------------------------------------------------------------------------------------------------------



  FREE ENERGIE OF THE ION-ELECTRON SYSTEM (eV)
  ---------------------------------------------------
  free  energy   TOTEN  =       -95.15561368 eV

  energy  without entropy=      -95.15541496  energy(sigma->0) =      -95.15551432
 
 d Force = 0.1026936E-03[-0.754E-04, 0.281E-03]  d Energy = 0.4433139E-04 0.584E-04
 d Force =-0.2270481E+01[-0.227E+01,-0.227E+01]  d Ewald  =-0.2270481E+01 0.160E-06


--------------------------------------------------------------------------------------------------------


    POTLOK:  cpu time      0.6526: real time      0.6541


--------------------------------------------------------------------------------------------------------




--------------------------------------------------------------------------------------------------------


  
 reached required accuracy - stopping structural energy minimisation
     LOOP+:  cpu time     13.7553: real time     14.3814
    4ORBIT:  cpu time      0.0000: real time      0.0000



 total charge

# of ion       s       p       d       tot
------------------------------------------
    1        2.189   6.115   2.072  10.376
    2        2.162   6.137   2.014  10.313
    3        0.496   0.314   0.000   0.810
    4        0.575   0.203   0.000   0.778
    5        0.427   0.397   0.000   0.824
    6        0.451   0.367   0.000   0.818
    7        0.723   1.244   0.000   1.966
    8        0.704   1.285   0.000   1.989
    9        0.733   1.205   0.000   1.938
   10        0.719   1.275   0.000   1.994
   11        0.739   1.302   0.000   2.040
   12        0.725   1.180   0.000   1.905
   13        0.772   1.182   0.000   1.955
   14        0.732   1.267   0.000   1.999
   15        0.708   1.218   0.000   1.927
   16        0.736   1.186   0.000   1.922
   17        0.741   1.327   0.000   2.069
   18        0.727   1.253   0.000   1.980
--------------------------------------------------
tot         15.061  28.456   4.085  47.603
 

 total amount of memory used by VASP MPI-rank0    57435. kBytes
=======================================================================

   base      :      30000. kBytes
   nonlr-proj:        614. kBytes
   fftplans  :       8954. kBytes
   grid      :      15378. kBytes
   one-center:         46. kBytes
   wavefun   :       2443. kBytes
 
  
  
 General timing and accounting informations for this job:
 ========================================================
  
                  Total CPU time used (sec):     3340.521
                            User time (sec):     3330.124
                          System time (sec):       10.398
                         Elapsed time (sec):     3834.415
  
                   Maximum memory used (kb):      306868.
                   Average memory used (kb):          N/A
  
                          Minor page faults:      4059982
                          Major page faults:            0
                 Voluntary context switches:         6150
