unknown system                          
           1
    20.738775    0.000000    0.000000
     0.000000   20.180822    0.000000
     0.000000    0.000000   18.777092
   Ti   Al   B 
     2     4    12
Direct configuration=     1
   0.43541902  0.30357061  0.61909950
   0.41283087  0.53609365  0.44410217
   0.68147676  0.63843269  0.51973405
   0.63929305  0.36252812  0.37074071
   0.60689828  0.39280108  0.44606116
   0.64772545  0.54134413  0.61977303
   0.44016550  0.51011949  0.61950414
   0.54499816  0.48532746  0.44109053
   0.53899394  0.31846650  0.41537659
   0.32258107  0.49836322  0.46024156
   0.43084093  0.41688277  0.47816477
   0.54451646  0.43050079  0.65319459
   0.51675435  0.52724386  0.40881481
   0.31147223  0.53348495  0.50952563
   0.60730496  0.51345876  0.47578053
   0.57152563  0.65666168  0.43617653
   0.42476237  0.46870515  0.56368747
   0.45194539  0.55649318  0.58488269
Direct configuration=     2
   0.43729680  0.30808237  0.61678343
   0.41269288  0.53294704  0.45150460
   0.67917329  0.63709127  0.51848947
   0.65443494  0.34311299  0.32735530
   0.58711298  0.41306983  0.49187454
   0.64532263  0.53971264  0.61713868
   0.43295808  0.46863455  0.67121657
   0.57023824  0.44365977  0.46821307
   0.54109587  0.32021880  0.41499247
   0.33280040  0.46479654  0.41515709
   0.43015166  0.42125657  0.48246381
   0.54259660  0.43139240  0.65155723
   0.49450932  0.56957293  0.38045781
   0.30573597  0.56597130  0.55239708
   0.60702259  0.51649051  0.47821281
   0.57164907  0.65262679  0.43732867
   0.42286992  0.45971330  0.54736337
   0.46184319  0.60212847  0.54344446
Direct configuration=     3
   0.43605443  0.30509730  0.61831579
   0.41278417  0.53502889  0.44660701
   0.68069731  0.63797878  0.51931291
   0.64441679  0.35595840  0.35605988
   0.60020329  0.39965965  0.46156357
   0.64691238  0.54079207  0.61888161
   0.43772664  0.49608174  0.63700269
   0.55353894  0.47122787  0.45026830
   0.53970519  0.31905945  0.41524661
   0.32603911  0.48700487  0.44498580
   0.43060769  0.41836279  0.47961949
   0.54386681  0.43080249  0.65264054
   0.50922704  0.54156725  0.39921932
   0.30953119  0.54447774  0.52403255
   0.60720941  0.51448465  0.47660357
   0.57156740  0.65529635  0.43656639
   0.42412200  0.46566247  0.55816369
   0.45529463  0.57193533  0.57086075
Direct configuration=     4
   0.43599321  0.30495022  0.61839129
   0.41278867  0.53513148  0.44636568
   0.68077241  0.63802251  0.51935348
   0.64392314  0.35659136  0.35747431
   0.60084832  0.39899886  0.46006999
   0.64699071  0.54084526  0.61896750
   0.43796161  0.49743421  0.63531679
   0.55271608  0.47258630  0.44938407
   0.53963667  0.31900232  0.41525914
   0.32570594  0.48809919  0.44645561
   0.43063017  0.41822019  0.47947934
   0.54392940  0.43077342  0.65269392
   0.50995225  0.54018726  0.40014379
   0.30971820  0.54341864  0.52263488
   0.60721862  0.51438581  0.47652427
   0.57156337  0.65542789  0.43652883
   0.42418369  0.46595562  0.55869588
   0.45497194  0.57044756  0.57221169
Direct configuration=     5
   0.43574899  0.30436344  0.61869251
   0.41280662  0.53554071  0.44540296
   0.68107198  0.63819697  0.51951534
   0.64195385  0.35911640  0.36311682
   0.60342151  0.39636280  0.45411171
   0.64730321  0.54105744  0.61931011
   0.43889898  0.50282955  0.62859130
   0.54943347  0.47800541  0.44585663
   0.53936330  0.31877442  0.41530909
   0.32437686  0.49246472  0.45231910
   0.43071981  0.41765136  0.47892022
   0.54417909  0.43065746  0.65290687
   0.51284534  0.53468213  0.40383178
   0.31046423  0.53919361  0.51705921
   0.60725534  0.51399152  0.47620794
   0.57154732  0.65595265  0.43637899
   0.42442982  0.46712506  0.56081892
   0.45368468  0.56451243  0.57760096
Direct configuration=     6
   0.43585418  0.30461618  0.61856277
   0.41279889  0.53536444  0.44581763
   0.68094295  0.63812183  0.51944563
   0.64280209  0.35802879  0.36068642
   0.60231316  0.39749823  0.45667812
   0.64716861  0.54096605  0.61916253
   0.43849523  0.50050561  0.63148817
   0.55084739  0.47567123  0.44737600
   0.53948105  0.31887259  0.41528758
   0.32494934  0.49058436  0.44979352
   0.43068120  0.41789637  0.47916105
   0.54407154  0.43070741  0.65281514
   0.51159920  0.53705336  0.40224325
   0.31014289  0.54101346  0.51946082
   0.60723953  0.51416135  0.47634420
   0.57155424  0.65572662  0.43644353
   0.42432381  0.46662135  0.55990446
   0.45423914  0.56706887  0.57527964
Direct configuration=     7
   0.43582617  0.30454886  0.61859733
   0.41280095  0.53541139  0.44570718
   0.68097732  0.63814184  0.51946420
   0.64257615  0.35831848  0.36133377
   0.60260837  0.39719580  0.45599454
   0.64720446  0.54099039  0.61920184
   0.43860277  0.50112461  0.63071658
   0.55047079  0.47629295  0.44697131
   0.53944968  0.31884644  0.41529331
   0.32479685  0.49108520  0.45046622
   0.43069148  0.41783111  0.47909690
   0.54410019  0.43069411  0.65283957
   0.51193112  0.53642177  0.40266636
   0.31022848  0.54052873  0.51882114
   0.60724374  0.51411611  0.47630790
   0.57155239  0.65578683  0.43642634
   0.42435204  0.46675551  0.56014803
   0.45409146  0.56638795  0.57589794
Direct configuration=     8
   0.43754997  0.30887961  0.61646965
   0.41489354  0.53399470  0.45134541
   0.67883611  0.63705893  0.51835437
   0.64430390  0.35323775  0.35163807
   0.60002104  0.39930381  0.46826454
   0.64511912  0.53954292  0.61692135
   0.44185769  0.50377044  0.63327427
   0.54364210  0.47654485  0.44270721
   0.54093557  0.32059654  0.41538198
   0.32445200  0.49001169  0.45185812
   0.43012765  0.42154671  0.48280847
   0.54183372  0.43173238  0.65117907
   0.51507818  0.53867801  0.40394134
   0.31318505  0.53961134  0.51660927
   0.61014101  0.51836269  0.47972924
   0.57171724  0.65185396  0.43734522
   0.42402098  0.46327340  0.55271642
   0.45178955  0.56247836  0.57540646
Direct configuration=     9
   0.43801005  0.31003547  0.61590178
   0.41545204  0.53361659  0.45285024
   0.67826463  0.63676990  0.51805816
   0.64476503  0.35188172  0.34905033
   0.59933049  0.39986643  0.47153935
   0.64456255  0.53915660  0.61631270
   0.44272641  0.50447661  0.63395691
   0.54181955  0.47661208  0.44156913
   0.54133215  0.32106364  0.41540565
   0.32435996  0.48972517  0.45222962
   0.42997716  0.42253839  0.48379907
   0.54122881  0.43200949  0.65073588
   0.51591812  0.53928020  0.40428163
   0.31397414  0.53936649  0.51601893
   0.61091428  0.51949609  0.48064239
   0.57176124  0.65080429  0.43759046
   0.42393262  0.46234404  0.55073294
   0.45117517  0.56143490  0.57527529
Direct configuration=    10
   0.44105024  0.31720182  0.61262489
   0.41892463  0.53173682  0.45908264
   0.67499709  0.63512772  0.51610572
   0.64349975  0.34860484  0.34471715
   0.59797107  0.40102783  0.48003218
   0.64121118  0.53664662  0.61274671
   0.44704325  0.50281497  0.63179684
   0.53889700  0.47610334  0.43983501
   0.54379004  0.32414012  0.41583281
   0.32497914  0.48792309  0.45415530
   0.42986205  0.42292585  0.48044441
   0.53686105  0.43379747  0.64781150
   0.52051381  0.54628811  0.40605452
   0.31855607  0.53816869  0.51364577
   0.60839721  0.52178139  0.48196968
   0.57171912  0.64365166  0.43885853
   0.42397451  0.46617901  0.55661846
   0.44725721  0.55635875  0.57361835
Direct configuration=    11
   0.44852365  0.33481814  0.60456965
   0.42746093  0.52711598  0.47440313
   0.66696484  0.63109090  0.51130622
   0.64038944  0.34054962  0.33406534
   0.59462934  0.40388279  0.50090926
   0.63297284  0.53047660  0.60398080
   0.45765490  0.49873033  0.62648695
   0.53171279  0.47485275  0.43557220
   0.54983201  0.33170271  0.41688285
   0.32650122  0.48349323  0.45888900
   0.42957908  0.42387830  0.47219798
   0.52612424  0.43819267  0.64062278
   0.53181092  0.56351496  0.41041263
   0.32981936  0.53522424  0.50781207
   0.60220974  0.52739911  0.48523242
   0.57161557  0.62606908  0.44197569
   0.42407749  0.47560612  0.57108622
   0.43762607  0.54388057  0.56954528
Direct configuration=    12
   0.44516313  0.32689671  0.60819180
   0.42362246  0.52919381  0.46751406
   0.67057665  0.63290611  0.51346438
   0.64178803  0.34417176  0.33885508
   0.59613200  0.40259902  0.49152159
   0.63667733  0.53325103  0.60792251
   0.45288322  0.50056705  0.62887461
   0.53494327  0.47541509  0.43748903
   0.54711515  0.32830208  0.41641068
   0.32581680  0.48548518  0.45676042
   0.42970632  0.42345002  0.47590610
   0.53095220  0.43621630  0.64385529
   0.52673102  0.55576866  0.40845295
   0.32475466  0.53654825  0.51043527
   0.60499202  0.52487302  0.48376528
   0.57166213  0.63397533  0.44057401
   0.42403118  0.47136709  0.56458059
   0.44195684  0.54949156  0.57137680
Direct configuration=    13
   0.44609012  0.32908182  0.60719264
   0.42468130  0.52862064  0.46941439
   0.66958034  0.63240539  0.51286906
   0.64140223  0.34317260  0.33753384
   0.59571750  0.40295314  0.49411116
   0.63565545  0.53248571  0.60683520
   0.45419948  0.50006039  0.62821598
   0.53405215  0.47525997  0.43696028
   0.54786459  0.32924014  0.41654093
   0.32600559  0.48493571  0.45734759
   0.42967123  0.42356816  0.47488323
   0.52962042  0.43676148  0.64296361
   0.52813230  0.55790546  0.40899352
   0.32615175  0.53618303  0.50971167
   0.60422454  0.52556984  0.48416999
   0.57164929  0.63179441  0.44096066
   0.42404396  0.47253642  0.56637515
   0.44076221  0.54794378  0.57087158
Direct configuration=    14
   0.44728059  0.33190066  0.60594123
   0.42565199  0.52813052  0.47057693
   0.66835552  0.63183258  0.51212583
   0.64081195  0.34216217  0.33637876
   0.59511610  0.40340706  0.49670256
   0.63444783  0.53160764  0.60559097
   0.45650075  0.49935151  0.62889781
   0.53319253  0.47542774  0.43638133
   0.54878108  0.33043377  0.41674797
   0.32648360  0.48381151  0.45747667
   0.42966844  0.42377509  0.47429326
   0.52779851  0.43740389  0.64181624
   0.53001167  0.56003805  0.41009477
   0.32774525  0.53630042  0.50954078
   0.60298873  0.52632332  0.48433411
   0.57161673  0.62890272  0.44139899
   0.42367461  0.47262308  0.56707915
   0.43937854  0.54704634  0.57057309
Direct configuration=    15
   0.45085199  0.34035719  0.60218701
   0.42856409  0.52666014  0.47406454
   0.66468104  0.63011415  0.50989614
   0.63904110  0.33913089  0.33291352
   0.59331193  0.40476883  0.50447677
   0.63082496  0.52897343  0.60185827
   0.46340455  0.49722485  0.63094329
   0.53061369  0.47593106  0.43464447
   0.55153055  0.33401466  0.41736909
   0.32791761  0.48043892  0.45786393
   0.42966010  0.42439591  0.47252337
   0.52233281  0.43933113  0.63837414
   0.53564978  0.56643583  0.41339852
   0.33252577  0.53665261  0.50902812
   0.59928129  0.52858375  0.48482649
   0.57151904  0.62022763  0.44271397
   0.42256658  0.47288308  0.56919115
   0.43522754  0.54435403  0.56967765
Direct configuration=    16
   0.45210354  0.34348220  0.60088705
   0.42916310  0.52680762  0.47281730
   0.66344032  0.62958225  0.50920450
   0.63833609  0.33844617  0.33239330
   0.59248475  0.40530876  0.50613965
   0.62974479  0.52822643  0.60082491
   0.46599003  0.49670702  0.63222563
   0.53015023  0.47656274  0.43429203
   0.55240878  0.33527702  0.41769666
   0.32880123  0.47919757  0.45774876
   0.42972432  0.42440513  0.47281521
   0.52048805  0.43970542  0.63721224
   0.53638781  0.56581455  0.41412617
   0.33389335  0.53701182  0.50945487
   0.59769676  0.52931071  0.48438766
   0.57270719  0.61879440  0.44407510
   0.42178820  0.47070263  0.56858910
   0.43419587  0.54513566  0.57106033
Direct configuration=    17
   0.45585819  0.35285723  0.59698716
   0.43096014  0.52725007  0.46907557
   0.65971819  0.62798655  0.50712957
   0.63622108  0.33639201  0.33083262
   0.59000322  0.40692855  0.51112829
   0.62650427  0.52598543  0.59772481
   0.47374648  0.49515354  0.63607267
   0.52875983  0.47845779  0.43323468
   0.55504346  0.33906410  0.41867937
   0.33145210  0.47547353  0.45740327
   0.42991696  0.42443278  0.47369071
   0.51495377  0.44082827  0.63372653
   0.53860191  0.56395070  0.41630910
   0.33799610  0.53808944  0.51073512
   0.59294317  0.53149157  0.48307119
   0.57627162  0.61449472  0.44815847
   0.41945308  0.46416127  0.56678296
   0.43110086  0.54748055  0.57520837
Direct configuration=    18
   0.45711252  0.35677167  0.59539392
   0.43133426  0.52821679  0.46703147
   0.65871565  0.62743069  0.50680796
   0.63532322  0.33599595  0.33092851
   0.58877529  0.40766676  0.51196240
   0.62550476  0.52528061  0.59683562
   0.47296400  0.49777699  0.63612450
   0.52879546  0.47920994  0.43320663
   0.55593496  0.34063396  0.41926259
   0.33308074  0.47489338  0.45784543
   0.43004191  0.42436383  0.47502621
   0.51545583  0.43792500  0.63233921
   0.53775825  0.56049963  0.41626567
   0.33920344  0.53775461  0.51133299
   0.59105999  0.53210892  0.48208308
   0.57856872  0.61463331  0.45045888
   0.41957394  0.46206010  0.56581421
   0.43030149  0.54725594  0.57723119
Direct configuration=    19
   0.45900311  0.36267173  0.59299250
   0.43189816  0.52967389  0.46395048
   0.65720458  0.62659286  0.50632321
   0.63396991  0.33539900  0.33107306
   0.58692449  0.40877945  0.51321960
   0.62399824  0.52421828  0.59549538
   0.47178461  0.50173121  0.63620261
   0.52884917  0.48034363  0.43316435
   0.55727868  0.34300013  0.42014165
   0.33553552  0.47401895  0.45851187
   0.43023023  0.42425990  0.47703915
   0.51621256  0.43354904  0.63024815
   0.53648665  0.55529798  0.41620023
   0.34102320  0.53724993  0.51223413
   0.58822155  0.53303942  0.48059376
   0.58203103  0.61484221  0.45392619
   0.41975612  0.45889310  0.56435407
   0.42909663  0.54691739  0.58028008
Direct configuration=    20
   0.45872648  0.36180844  0.59334387
   0.43181565  0.52946068  0.46440129
   0.65742568  0.62671545  0.50639414
   0.63416792  0.33548634  0.33105191
   0.58719530  0.40861664  0.51303565
   0.62421867  0.52437372  0.59569148
   0.47195718  0.50115263  0.63619118
   0.52884131  0.48017775  0.43317053
   0.55708206  0.34265392  0.42001302
   0.33517633  0.47414690  0.45841436
   0.43020268  0.42427511  0.47674462
   0.51610183  0.43418933  0.63055411
   0.53667271  0.55605908  0.41620980
   0.34075693  0.53732378  0.51210228
   0.58863686  0.53290327  0.48081168
   0.58152443  0.61481164  0.45341886
   0.41972946  0.45935649  0.56456771
   0.42927292  0.54696693  0.57983397
Direct configuration=    21
   0.45896395  0.36361694  0.59207068
   0.43185931  0.53027402  0.46361649
   0.65826951  0.62643431  0.50738915
   0.63346433  0.33550602  0.33162389
   0.58608237  0.40925461  0.51293805
   0.62366548  0.52403723  0.59522698
   0.47132023  0.50148150  0.63508077
   0.52921694  0.47938813  0.43365916
   0.55753821  0.34396261  0.42059447
   0.33688987  0.47445100  0.45930344
   0.43039881  0.42446977  0.47797516
   0.51660574  0.43385442  0.62997027
   0.53671068  0.55582366  0.41643788
   0.34143078  0.53645248  0.51273835
   0.58784912  0.53260777  0.48033295
   0.58035337  0.61369357  0.45299043
   0.42039390  0.45931614  0.56384540
   0.42849183  0.54585390  0.58015695
Direct configuration=    22
   0.45967634  0.36904247  0.58825113
   0.43199027  0.53271401  0.46126207
   0.66080101  0.62559089  0.51037420
   0.63135356  0.33556506  0.33333982
   0.58274359  0.41116852  0.51264525
   0.62200593  0.52302777  0.59383347
   0.46940936  0.50246809  0.63174955
   0.53034381  0.47701926  0.43512506
   0.55890663  0.34788869  0.42233880
   0.34203049  0.47536333  0.46197069
   0.43098719  0.42505376  0.48166677
   0.51811746  0.43284970  0.62821875
   0.53682458  0.55511740  0.41712210
   0.34345230  0.53383860  0.51464655
   0.58548588  0.53172128  0.47889676
   0.57684022  0.61033934  0.45170514
   0.42238722  0.45919509  0.56167846
   0.42614855  0.54251483  0.58112590
Direct configuration=    23
   0.45951672  0.36952345  0.58652465
   0.43240570  0.53358996  0.46085675
   0.66122629  0.62509621  0.51123738
   0.63035609  0.33572966  0.33432069
   0.58125742  0.41198738  0.51256560
   0.62118312  0.52256125  0.59333244
   0.46963617  0.50095327  0.63062389
   0.53066415  0.47578232  0.43565462
   0.55935688  0.34982609  0.42312478
   0.34457603  0.47511848  0.46291154
   0.43128068  0.42540042  0.48225798
   0.51924050  0.43427742  0.62771103
   0.53593339  0.55433698  0.41648741
   0.34455804  0.53302799  0.51650917
   0.58511713  0.53055293  0.47916092
   0.57622647  0.60995756  0.45175723
   0.42297912  0.46088586  0.56096933
   0.42399051  0.54187088  0.57994505
Direct configuration=    24
   0.45903784  0.37096640  0.58134520
   0.43365200  0.53621779  0.45964078
   0.66250212  0.62361216  0.51382691
   0.62736367  0.33622344  0.33726330
   0.57679890  0.41444397  0.51232665
   0.61871471  0.52116169  0.59182938
   0.47031658  0.49640881  0.62724691
   0.53162518  0.47207151  0.43724329
   0.56070761  0.35563827  0.42548272
   0.35221268  0.47438394  0.46573407
   0.43216116  0.42644040  0.48403162
   0.52260962  0.43856058  0.62618787
   0.53325983  0.55199573  0.41458335
   0.34787524  0.53059615  0.52209706
   0.58401088  0.52704786  0.47995342
   0.57438523  0.60881222  0.45191350
   0.42475481  0.46595817  0.55884192
   0.41751637  0.53993901  0.57640252
Direct configuration=    25
   0.45887969  0.37144294  0.57963463
   0.43406360  0.53708566  0.45923919
   0.66292347  0.62312203  0.51468213
   0.62637539  0.33638652  0.33823512
   0.57532643  0.41525529  0.51224773
   0.61789948  0.52069947  0.59133298
   0.47054129  0.49490795  0.62613163
   0.53194256  0.47084597  0.43776797
   0.56115371  0.35755781  0.42626146
   0.35473477  0.47414135  0.46666625
   0.43245194  0.42678386  0.48461738
   0.52372232  0.43997514  0.62568483
   0.53237686  0.55122251  0.41395451
   0.34897079  0.52979300  0.52394252
   0.58364553  0.52589028  0.48021515
   0.57377714  0.60843396  0.45196511
   0.42534125  0.46763336  0.55813931
   0.41537821  0.53930099  0.57523256
Direct configuration=    26
   0.45927757  0.37210690  0.57769879
   0.43555939  0.53832987  0.45855092
   0.66275474  0.62230804  0.51540096
   0.62500045  0.33668389  0.33965033
   0.57387696  0.41596248  0.51374871
   0.61648764  0.51994206  0.59104523
   0.46982339  0.49414996  0.62428420
   0.53143122  0.46968048  0.43739523
   0.56138214  0.36031022  0.42696257
   0.35811334  0.47291091  0.46818049
   0.43273412  0.42739442  0.48393146
   0.52597279  0.44122953  0.62443454
   0.53178758  0.54991470  0.41353966
   0.35063015  0.52843705  0.52698669
   0.58284867  0.52472852  0.48027834
   0.57341322  0.60743264  0.45237188
   0.42544372  0.46825520  0.55610073
   0.41296734  0.54070121  0.57538972
Direct configuration=    27
   0.46004641  0.37338989  0.57395813
   0.43844973  0.54073410  0.45722094
   0.66242868  0.62073513  0.51678999
   0.62234361  0.33725850  0.34238498
   0.57107611  0.41732902  0.51664908
   0.61375951  0.51847851  0.59048921
   0.46843617  0.49268526  0.62071437
   0.53044313  0.46742838  0.43667497
   0.56182355  0.36562877  0.42831735
   0.36464183  0.47053331  0.47110652
   0.43327937  0.42857421  0.48260603
   0.53032145  0.44365342  0.62201858
   0.53064891  0.54738759  0.41273804
   0.35383659  0.52581691  0.53286902
   0.58130888  0.52248362  0.48040043
   0.57271002  0.60549777  0.45315789
   0.42564171  0.46945682  0.55216153
   0.40830874  0.54340690  0.57569341
Direct configuration=    28
   0.46106792  0.37440412  0.57243303
   0.44005660  0.54186271  0.45652722
   0.66159852  0.61970059  0.51722321
   0.62093684  0.33758807  0.34384311
   0.57018531  0.41768194  0.51966606
   0.61200704  0.51770417  0.59067467
   0.46745075  0.49261365  0.61863036
   0.52917880  0.46619217  0.43527733
   0.56147551  0.36889992  0.42867140
   0.36794496  0.46917651  0.47333082
   0.43404131  0.42862697  0.47997161
   0.53271929  0.44485142  0.62033154
   0.53118571  0.54632003  0.41263067
   0.35377460  0.52337512  0.53405382
   0.58016806  0.52170929  0.48012963
   0.57253231  0.60377232  0.45366614
   0.42452278  0.47020707  0.54998244
   0.40865811  0.54579203  0.57890741
Direct configuration=    29
   0.46242287  0.37574943  0.57041008
   0.44218801  0.54335974  0.45560705
   0.66049737  0.61832834  0.51779784
   0.61907084  0.33802523  0.34577722
   0.56900374  0.41815007  0.52366790
   0.60968251  0.51667706  0.59092068
   0.46614364  0.49251866  0.61586605
   0.52750174  0.46455242  0.43342346
   0.56101385  0.37323889  0.42914103
   0.37232636  0.46737681  0.47628121
   0.43505196  0.42869695  0.47647721
   0.53589988  0.44644049  0.61809379
   0.53189773  0.54490397  0.41248825
   0.35369237  0.52013625  0.53562538
   0.57865483  0.52068219  0.47977042
   0.57229657  0.60148361  0.45434031
   0.42303861  0.47120223  0.54709201
   0.40912153  0.54895575  0.58317058
Direct configuration=    30
   0.46305995  0.37656272  0.57061307
   0.44204716  0.54348243  0.45601949
   0.65955153  0.61776943  0.51764682
   0.61874585  0.33807739  0.34609130
   0.56980913  0.41769889  0.52403390
   0.60912944  0.51713222  0.59145961
   0.46650800  0.49298644  0.61538290
   0.52669886  0.46350224  0.43256430
   0.55995375  0.37504932  0.42909337
   0.37096325  0.46764617  0.47677285
   0.43761977  0.42770564  0.47409792
   0.53526772  0.44694569  0.61835175
   0.53335033  0.54492196  0.41222735
   0.35375531  0.51961189  0.53515238
   0.57823131  0.52050276  0.47966877
   0.57243699  0.60062363  0.45459055
   0.42185359  0.47174499  0.54748920
   0.41052250  0.54851428  0.58469494
Direct configuration=    31
   0.46451223  0.37841670  0.57107581
   0.44172607  0.54376210  0.45695970
   0.65739538  0.61649535  0.51730256
   0.61800502  0.33819632  0.34680728
   0.57164511  0.41667037  0.52486824
   0.60786864  0.51816980  0.59268817
   0.46733858  0.49405279  0.61428151
   0.52486861  0.46110823  0.43060574
   0.55753711  0.37917641  0.42898472
   0.36785588  0.46826018  0.47789359
   0.44347337  0.42544582  0.46867405
   0.53382664  0.44809736  0.61893979
   0.53666169  0.54496297  0.41163261
   0.35389878  0.51841656  0.53407411
   0.57726585  0.52009372  0.47943705
   0.57275710  0.59866321  0.45516100
   0.41915219  0.47298229  0.54839464
   0.41371617  0.54750791  0.58816989
Direct configuration=    32
   0.46497264  0.37988484  0.57176196
   0.44161853  0.54287778  0.45788293
   0.65588269  0.61568834  0.51705333
   0.61747381  0.33830321  0.34732929
   0.57357436  0.41637850  0.52556943
   0.60699308  0.51935989  0.59358742
   0.46847194  0.49487847  0.61391504
   0.52318788  0.46036655  0.42929201
   0.55524691  0.38167174  0.42797527
   0.36775060  0.46639915  0.47647432
   0.44605144  0.42662860  0.46616075
   0.53286128  0.44844121  0.61951830
   0.53791246  0.54403699  0.41023445
   0.35445135  0.52015421  0.53540339
   0.57716274  0.51905826  0.48044015
   0.57340969  0.59819740  0.45591003
   0.41786552  0.47174433  0.54869092
   0.41461750  0.54640862  0.58875146
Direct configuration=    33
   0.46552647  0.38165086  0.57258734
   0.44148917  0.54181402  0.45899348
   0.65406306  0.61471759  0.51675353
   0.61683481  0.33843180  0.34795721
   0.57589506  0.41602741  0.52641290
   0.60593988  0.52079144  0.59466914
   0.46983525  0.49587169  0.61347422
   0.52116613  0.45947439  0.42771172
   0.55249204  0.38467338  0.42676101
   0.36762397  0.46416051  0.47476707
   0.44915259  0.42805137  0.46313750
   0.53170006  0.44885482  0.62021418
   0.53941700  0.54292313  0.40855260
   0.35511604  0.52224442  0.53700238
   0.57703870  0.51781270  0.48164679
   0.57419470  0.59763709  0.45681104
   0.41631779  0.47025519  0.54904732
   0.41570171  0.54508628  0.58945103
Direct configuration=    34
   0.46519680  0.38259837  0.57288861
   0.44221581  0.53980440  0.45975521
   0.65355549  0.61434068  0.51704239
   0.61613491  0.33865672  0.34863294
   0.57751780  0.41618114  0.52694750
   0.60489719  0.52196827  0.59556062
   0.47066016  0.49652361  0.61293336
   0.51979100  0.46181899  0.42620181
   0.55031503  0.38533781  0.42565140
   0.36922407  0.46378876  0.47533746
   0.44951398  0.43053254  0.46255687
   0.53257116  0.44846354  0.62059076
   0.54008924  0.54180353  0.40800543
   0.35657372  0.52255422  0.53658917
   0.57715579  0.51715526  0.48279038
   0.57382775  0.59627943  0.45666929
   0.41554846  0.46790115  0.54955636
   0.41471607  0.54476968  0.58824090
Direct configuration=    35
   0.46482302  0.38367265  0.57323019
   0.44303969  0.53752587  0.46061887
   0.65297999  0.61391334  0.51736990
   0.61534136  0.33891174  0.34939910
   0.57935767  0.41635544  0.52755363
   0.60371498  0.52330257  0.59657138
   0.47159545  0.49726276  0.61232012
   0.51823187  0.46447733  0.42448987
   0.54784671  0.38609114  0.42439332
   0.37103827  0.46336727  0.47598417
   0.44992373  0.43334571  0.46189855
   0.53355882  0.44801991  0.62101772
   0.54085142  0.54053411  0.40738504
   0.35822646  0.52290547  0.53612066
   0.57728854  0.51640985  0.48408699
   0.57341169  0.59474011  0.45650857
   0.41467619  0.46523212  0.55013352
   0.41359855  0.54441071  0.58686885
Direct configuration=    36
   0.46528078  0.38291774  0.57296305
   0.44422130  0.53770827  0.46119478
   0.65287354  0.61390196  0.51772554
   0.61454195  0.33925462  0.35015839
   0.57964354  0.41617695  0.52671766
   0.60261052  0.52407512  0.59757290
   0.47152808  0.49770870  0.61113042
   0.51841846  0.46553845  0.42325701
   0.54598780  0.38659178  0.42469018
   0.37219166  0.46339480  0.47657356
   0.44900591  0.43391809  0.46256369
   0.53460412  0.44799432  0.62123193
   0.54139303  0.54034884  0.40758990
   0.35823263  0.52165906  0.53359907
   0.57746749  0.51624805  0.48415246
   0.57295017  0.59385565  0.45603376
   0.41431039  0.46505776  0.55196058
   0.41424305  0.54412794  0.58683556
Direct configuration=    37
   0.46559314  0.38240261  0.57278077
   0.44502758  0.53783273  0.46158776
   0.65280090  0.61389420  0.51796822
   0.61399646  0.33948859  0.35067650
   0.57983860  0.41605515  0.52614722
   0.60185688  0.52460227  0.59825630
   0.47148211  0.49801299  0.61031861
   0.51854578  0.46626252  0.42241577
   0.54471936  0.38693340  0.42489274
   0.37297869  0.46341359  0.47697573
   0.44837964  0.43430866  0.46301755
   0.53531740  0.44797685  0.62137810
   0.54176259  0.54022241  0.40772969
   0.35823684  0.52080856  0.53187845
   0.57758960  0.51613765  0.48419713
   0.57263524  0.59325214  0.45570978
   0.41406078  0.46493879  0.55320728
   0.41468284  0.54393499  0.58681284
Direct configuration=    38
   0.46659854  0.38170405  0.57232968
   0.44626682  0.53899058  0.46279184
   0.65248740  0.61390422  0.51824036
   0.61291379  0.34000743  0.35170173
   0.57974964  0.41592051  0.52512865
   0.60065782  0.52537511  0.59924251
   0.47240296  0.49750413  0.60947581
   0.51848633  0.46580107  0.42153503
   0.54260783  0.38735845  0.42543001
   0.37385365  0.46263940  0.47671694
   0.44839746  0.43413587  0.46328001
   0.53584533  0.44809842  0.62125710
   0.54214861  0.54013087  0.40719916
   0.35857683  0.52042941  0.53052798
   0.57793906  0.51587978  0.48414867
   0.57280693  0.59350855  0.45587008
   0.41363525  0.46510794  0.55529012
   0.41413018  0.54398231  0.58578480
Direct configuration=    39
   0.46810733  0.38065573  0.57165275
   0.44812651  0.54072813  0.46459877
   0.65201694  0.61391926  0.51864875
   0.61128904  0.34078603  0.35324025
   0.57961614  0.41571847  0.52360010
   0.59885842  0.52653488  0.60072248
   0.47378486  0.49674049  0.60821103
   0.51839710  0.46510857  0.42021333
   0.53943910  0.38799631  0.42623626
   0.37516668  0.46147760  0.47632857
   0.44842420  0.43387658  0.46367388
   0.53663758  0.44828085  0.62107552
   0.54272791  0.53999350  0.40640302
   0.35908705  0.51986043  0.52850136
   0.57846349  0.51549279  0.48407594
   0.57306458  0.59389334  0.45611064
   0.41299667  0.46536179  0.55841577
   0.41330083  0.54405333  0.58424203
Direct configuration=    40
   0.46919496  0.38101800  0.57101362
   0.44946906  0.54148440  0.46698646
   0.65165494  0.61398289  0.51917034
   0.60959932  0.34164698  0.35480984
   0.57950996  0.41600292  0.52285544
   0.59760698  0.52750568  0.60145575
   0.47400950  0.49662019  0.60719069
   0.51797184  0.46562006  0.41939373
   0.53670069  0.38699397  0.42690963
   0.37613135  0.46014183  0.47597864
   0.45015684  0.43320234  0.46295541
   0.53714815  0.44778676  0.62064734
   0.54333678  0.53977113  0.40580654
   0.35950620  0.52004946  0.52779484
   0.57897167  0.51575078  0.48368022
   0.57317932  0.59399928  0.45616825
   0.41190905  0.46469877  0.55969465
   0.41344782  0.54420266  0.58343907
Direct configuration=    41
   0.47245783  0.38210483  0.56909623
   0.45349671  0.54375322  0.47414955
   0.65056894  0.61417375  0.52073510
   0.60453016  0.34422980  0.35951859
   0.57919144  0.41685630  0.52062148
   0.59385268  0.53041808  0.60365556
   0.47468342  0.49625929  0.60412965
   0.51669603  0.46715452  0.41693492
   0.52848545  0.38398693  0.42892974
   0.37902536  0.45613451  0.47492887
   0.45535475  0.43117963  0.46079998
   0.53867987  0.44630449  0.61936281
   0.54516338  0.53910402  0.40401709
   0.36076364  0.52061656  0.52567528
   0.58049620  0.51652473  0.48249307
   0.57352357  0.59431708  0.45634108
   0.40864618  0.46270970  0.56353129
   0.41388881  0.54465066  0.58103018
Direct configuration=    42
   0.47400640  0.38262064  0.56818622
   0.45540826  0.54483001  0.47754919
   0.65005352  0.61426434  0.52147774
   0.60212431  0.34545562  0.36175339
   0.57904026  0.41726131  0.51956123
   0.59207087  0.53180032  0.60469960
   0.47500326  0.49608800  0.60267686
   0.51609053  0.46788278  0.41576796
   0.52458645  0.38255978  0.42988850
   0.38039888  0.45423262  0.47443064
   0.45782171  0.43021963  0.45977700
   0.53940682  0.44560099  0.61875316
   0.54603029  0.53878741  0.40316781
   0.36136043  0.52088570  0.52466933
   0.58121975  0.51689206  0.48192964