       N       E                     dE             d eps       ncg     rms          rms(c)
DAV:   1     0.303626557410E+03    0.30363E+03   -0.18085E+04   144   0.552E+02
DAV:   2     0.292660132335E+02   -0.27436E+03   -0.26902E+03   152   0.164E+02
DAV:   3    -0.593841976978E+02   -0.88650E+02   -0.86019E+02   152   0.645E+01
DAV:   4    -0.741867545373E+02   -0.14803E+02   -0.14072E+02   136   0.277E+01
DAV:   5    -0.754023238182E+02   -0.12156E+01   -0.11748E+01   152   0.707E+00    0.231E+01
DAV:   6    -0.668882776369E+02    0.85140E+01   -0.18401E+02   136   0.467E+01    0.228E+01
DAV:   7    -0.619070262082E+02    0.49813E+01   -0.14563E+02   144   0.473E+01    0.148E+01
DAV:   8    -0.577825328255E+02    0.41245E+01   -0.35064E+01   136   0.234E+01    0.837E+00
DAV:   9    -0.567221421067E+02    0.10604E+01   -0.10176E+01   160   0.956E+00    0.513E+00
DAV:  10    -0.563272893256E+02    0.39485E+00   -0.36378E+00   144   0.438E+00    0.336E+00
DAV:  11    -0.562490996438E+02    0.78190E-01   -0.21001E+00   136   0.279E+00    0.255E+00
DAV:  12    -0.563011219651E+02   -0.52022E-01   -0.19078E+00   152   0.487E+00    0.374E+00
DAV:  13    -0.561409170371E+02    0.16020E+00   -0.10889E+00   152   0.342E+00    0.111E+00
DAV:  14    -0.561378508301E+02    0.30662E-02   -0.16020E-01   144   0.121E+00    0.535E-01
DAV:  15    -0.561362720118E+02    0.15788E-02   -0.42240E-02   144   0.481E-01    0.231E-01
DAV:  16    -0.561369067286E+02   -0.63472E-03   -0.92142E-03   136   0.314E-01    0.140E-01
DAV:  17    -0.561388906523E+02   -0.19839E-02   -0.46886E-03   136   0.287E-01    0.146E-01
DAV:  18    -0.561422616777E+02   -0.33710E-02   -0.28820E-03   128   0.203E-01    0.716E-02
DAV:  19    -0.561460459993E+02   -0.37843E-02   -0.97063E-04    88   0.981E-02    0.527E-02
DAV:  20    -0.561497391590E+02   -0.36932E-02   -0.78355E-04    88   0.869E-02    0.269E-02
DAV:  21    -0.561520234084E+02   -0.22842E-02   -0.28057E-04    88   0.426E-02    0.181E-02
DAV:  22    -0.561535427252E+02   -0.15193E-02   -0.10585E-04    72   0.268E-02    0.129E-02
DAV:  23    -0.561545912520E+02   -0.10485E-02   -0.54375E-05    56   0.192E-02    0.726E-03
DAV:  24    -0.561557471140E+02   -0.11559E-02   -0.11568E-04    72   0.215E-02    0.101E-02
DAV:  25    -0.561561443478E+02   -0.39723E-03   -0.28656E-05    56   0.141E-02    0.547E-03
DAV:  26    -0.561563408019E+02   -0.19645E-03   -0.19900E-05    48   0.958E-03    0.245E-03
DAV:  27    -0.561564739682E+02   -0.13317E-03   -0.14551E-05    56   0.961E-03    0.304E-03
DAV:  28    -0.561565313173E+02   -0.57349E-04   -0.91501E-06    48   0.650E-03
   1 F= -.56156531E+02 E0= -.56103197E+02  d E =-.561565E+02
       N       E                     dE             d eps       ncg     rms          rms(c)
DAV:   1    -0.746679668355E+01    0.48690E+02   -0.52711E+03   104   0.379E+02    0.184E+01
DAV:   2    -0.745196558201E+02   -0.67053E+02   -0.70517E+02   136   0.105E+02    0.374E+01
DAV:   3    -0.667384037155E+02    0.77813E+01   -0.27221E+02   152   0.890E+01    0.163E+01
DAV:   4    -0.651902917910E+02    0.15481E+01   -0.30642E+01   136   0.204E+01    0.126E+01
DAV:   5    -0.649714229415E+02    0.21887E+00   -0.68278E+00   144   0.716E+00    0.109E+01
DAV:   6    -0.645029443663E+02    0.46848E+00   -0.10520E+01   152   0.802E+00    0.696E+00
DAV:   7    -0.643819727275E+02    0.12097E+00   -0.55218E+00   152   0.648E+00    0.857E+00
DAV:   8    -0.640134325528E+02    0.36854E+00   -0.33942E+00   144   0.440E+00    0.396E+00
DAV:   9    -0.639555978906E+02    0.57835E-01   -0.17654E+00   152   0.343E+00    0.326E+00
DAV:  10    -0.638781123135E+02    0.77486E-01   -0.40963E-01   136   0.173E+00    0.136E+00
DAV:  11    -0.638762814162E+02    0.18309E-02   -0.15118E-01   144   0.128E+00    0.477E-01
DAV:  12    -0.638798533655E+02   -0.35719E-02   -0.24192E-02   136   0.588E-01    0.267E-01
DAV:  13    -0.638816173936E+02   -0.17640E-02   -0.83620E-03   144   0.281E-01    0.215E-01
DAV:  14    -0.638829165414E+02   -0.12991E-02   -0.27230E-03   128   0.153E-01    0.164E-01
DAV:  15    -0.638839307160E+02   -0.10142E-02   -0.98809E-04   112   0.104E-01    0.557E-02
DAV:  16    -0.638851746520E+02   -0.12439E-02   -0.31953E-04    88   0.668E-02    0.275E-02
DAV:  17    -0.638862450711E+02   -0.10704E-02   -0.30772E-04    96   0.502E-02    0.376E-02
DAV:  18    -0.638871895936E+02   -0.94452E-03   -0.12941E-04    80   0.330E-02    0.186E-02
DAV:  19    -0.638879653691E+02   -0.77578E-03   -0.17146E-04    72   0.297E-02    0.986E-03
DAV:  20    -0.638882862359E+02   -0.32087E-03   -0.31560E-05    48   0.147E-02    0.694E-03
DAV:  21    -0.638885143661E+02   -0.22813E-03   -0.40696E-05    56   0.120E-02    0.876E-03
DAV:  22    -0.638886486227E+02   -0.13426E-03   -0.21675E-05    48   0.107E-02    0.239E-03
DAV:  23    -0.638887065444E+02   -0.57922E-04   -0.84421E-06    48   0.665E-03
   2 F= -.63888707E+02 E0= -.63809430E+02  d E =-.773218E+01
       N       E                     dE             d eps       ncg     rms          rms(c)
DAV:   1    -0.433144941697E+02    0.20574E+02   -0.23460E+03   144   0.293E+02    0.158E+01
DAV:   2    -0.848394474084E+02   -0.41525E+02   -0.45773E+02   168   0.844E+01    0.372E+01
DAV:   3    -0.696364141045E+02    0.15203E+02   -0.15484E+02   144   0.704E+01    0.115E+01
DAV:   4    -0.685471747948E+02    0.10892E+01   -0.22551E+01   144   0.156E+01    0.593E+00
DAV:   5    -0.686238796057E+02   -0.76705E-01   -0.77614E+00   152   0.600E+00    0.572E+00
DAV:   6    -0.683895422541E+02    0.23434E+00   -0.19855E+00   144   0.306E+00    0.444E+00
DAV:   7    -0.684971306900E+02   -0.10759E+00   -0.29276E+00   144   0.429E+00    0.453E+00
DAV:   8    -0.684079998000E+02    0.89131E-01   -0.23484E+00   152   0.415E+00    0.270E+00
DAV:   9    -0.683353225293E+02    0.72677E-01   -0.98330E-01   160   0.232E+00    0.121E+00
DAV:  10    -0.683330598096E+02    0.22627E-02   -0.17736E-01   144   0.111E+00    0.162E+00
DAV:  11    -0.683083209599E+02    0.24739E-01   -0.10379E-01   136   0.106E+00    0.488E-01
DAV:  12    -0.683112896264E+02   -0.29687E-02   -0.29422E-02   152   0.636E-01    0.242E-01
DAV:  13    -0.683122624680E+02   -0.97284E-03   -0.26887E-03   136   0.186E-01    0.206E-01
DAV:  14    -0.683122921781E+02   -0.29710E-04   -0.29233E-03   136   0.213E-01    0.833E-02
DAV:  15    -0.683128014842E+02   -0.50931E-03   -0.64520E-04   104   0.979E-02    0.510E-02
DAV:  16    -0.683129960477E+02   -0.19456E-03   -0.64517E-05    72   0.364E-02    0.456E-02
DAV:  17    -0.683133042615E+02   -0.30821E-03   -0.84548E-05    64   0.390E-02    0.228E-02
DAV:  18    -0.683135211471E+02   -0.21689E-03   -0.71551E-05    48   0.285E-02    0.564E-03
DAV:  19    -0.683137325782E+02   -0.21143E-03   -0.44046E-05    80   0.186E-02    0.844E-03
DAV:  20    -0.683138507242E+02   -0.11815E-03   -0.14936E-05    48   0.115E-02    0.906E-03
DAV:  21    -0.683139579189E+02   -0.10719E-03   -0.16077E-05    48   0.108E-02    0.622E-03
DAV:  22    -0.683140055118E+02   -0.47593E-04   -0.98020E-06    48   0.869E-03
   3 F= -.68314006E+02 E0= -.68240302E+02  d E =-.121575E+02
       N       E                     dE             d eps       ncg     rms          rms(c)
DAV:   1    -0.680574928297E+02    0.25647E+00   -0.25879E+01   120   0.472E+01    0.186E+00
DAV:   2    -0.686353140458E+02   -0.57782E+00   -0.56958E+00   120   0.925E+00    0.574E+00
DAV:   3    -0.683564714054E+02    0.27884E+00   -0.27857E+00   128   0.485E+00    0.141E+00
DAV:   4    -0.683736064185E+02   -0.17135E-01   -0.51469E-01   144   0.160E+00    0.103E+00
DAV:   5    -0.683575463558E+02    0.16060E-01   -0.27082E-01   144   0.833E-01    0.719E-01
DAV:   6    -0.683554366101E+02    0.21097E-02   -0.93053E-02   144   0.833E-01    0.463E-01
DAV:   7    -0.683536285209E+02    0.18081E-02   -0.24039E-02   136   0.534E-01    0.172E-01
DAV:   8    -0.683537559140E+02   -0.12739E-03   -0.40429E-03   128   0.225E-01    0.787E-02
DAV:   9    -0.683539132194E+02   -0.15731E-03   -0.84160E-04   120   0.103E-01    0.513E-02
DAV:  10    -0.683539344620E+02   -0.21243E-04   -0.15386E-04    56   0.647E-02
   4 F= -.68353934E+02 E0= -.68283586E+02  d E =-.121974E+02
       N       E                     dE             d eps       ncg     rms          rms(c)
DAV:   1    -0.684047515940E+02   -0.50838E-01   -0.46440E+02    96   0.164E+02    0.911E+00
DAV:   2    -0.809840587501E+02   -0.12579E+02   -0.11950E+02   128   0.465E+01    0.264E+01
DAV:   3    -0.738624490574E+02    0.71216E+01   -0.71528E+01   136   0.385E+01    0.687E+00
DAV:   4    -0.739539365340E+02   -0.91487E-01   -0.98600E+00   144   0.947E+00    0.538E+00
DAV:   5    -0.736194346753E+02    0.33450E+00   -0.21528E+00   128   0.426E+00    0.341E+00
DAV:   6    -0.735646894741E+02    0.54745E-01   -0.15617E+00   144   0.323E+00    0.275E+00
DAV:   7    -0.735472259904E+02    0.17463E-01   -0.18903E+00   144   0.251E+00    0.241E+00
DAV:   8    -0.734880474282E+02    0.59179E-01   -0.32290E-01   136   0.138E+00    0.132E+00
DAV:   9    -0.734831775188E+02    0.48699E-02   -0.93910E-02   136   0.901E-01    0.676E-01
DAV:  10    -0.734785078496E+02    0.46697E-02   -0.31363E-02   144   0.519E-01    0.326E-01
DAV:  11    -0.734783918705E+02    0.11598E-03   -0.59378E-03   128   0.271E-01    0.174E-01
DAV:  12    -0.734784529340E+02   -0.61064E-04   -0.26683E-03   144   0.171E-01    0.683E-02
DAV:  13    -0.734789708764E+02   -0.51794E-03   -0.66302E-04   104   0.838E-02    0.332E-02
DAV:  14    -0.734793237456E+02   -0.35287E-03   -0.16449E-04    72   0.422E-02    0.256E-02
DAV:  15    -0.734796772596E+02   -0.35351E-03   -0.71397E-05    72   0.274E-02    0.181E-02
DAV:  16    -0.734799570339E+02   -0.27977E-03   -0.34803E-05    72   0.209E-02    0.113E-02
DAV:  17    -0.734802923513E+02   -0.33532E-03   -0.52740E-05    56   0.237E-02    0.615E-03
DAV:  18    -0.734805588639E+02   -0.26651E-03   -0.41549E-05    48   0.147E-02    0.749E-03
DAV:  19    -0.734807100820E+02   -0.15122E-03   -0.22617E-05    48   0.109E-02    0.706E-03
DAV:  20    -0.734808049892E+02   -0.94907E-04   -0.20622E-05    48   0.141E-02
   5 F= -.73480805E+02 E0= -.73425124E+02  d E =-.512687E+01
       N       E                     dE             d eps       ncg     rms          rms(c)
DAV:   1    -0.734999543874E+02   -0.19244E-01   -0.97709E+01    96   0.780E+01    0.340E+00
DAV:   2    -0.752197954698E+02   -0.17198E+01   -0.19622E+01   128   0.181E+01    0.843E+00
DAV:   3    -0.745069678118E+02    0.71283E+00   -0.71227E+00   144   0.890E+00    0.377E+00
DAV:   4    -0.743748083772E+02    0.13216E+00   -0.20202E+00   128   0.439E+00    0.188E+00
DAV:   5    -0.743333974095E+02    0.41411E-01   -0.62507E-01   136   0.193E+00    0.119E+00
DAV:   6    -0.743281899913E+02    0.52074E-02   -0.19944E-01   144   0.113E+00    0.842E-01
DAV:   7    -0.743239885814E+02    0.42014E-02   -0.13449E-01   136   0.120E+00    0.553E-01
DAV:   8    -0.743210094969E+02    0.29791E-02   -0.49199E-02   136   0.678E-01    0.246E-01
DAV:   9    -0.743207228330E+02    0.28666E-03   -0.75600E-03   136   0.243E-01    0.106E-01
DAV:  10    -0.743210496197E+02   -0.32679E-03   -0.10864E-03   112   0.108E-01    0.447E-02
DAV:  11    -0.743212148985E+02   -0.16528E-03   -0.26471E-04    72   0.560E-02    0.253E-02
DAV:  12    -0.743213603485E+02   -0.14545E-03   -0.72085E-05    72   0.336E-02    0.135E-02
DAV:  13    -0.743214860701E+02   -0.12572E-03   -0.27393E-05    72   0.190E-02    0.714E-03
DAV:  14    -0.743216767413E+02   -0.19067E-03   -0.25351E-05    56   0.161E-02    0.551E-03
DAV:  15    -0.743218475962E+02   -0.17085E-03   -0.21812E-05    48   0.118E-02    0.400E-03
DAV:  16    -0.743219611186E+02   -0.11352E-03   -0.14349E-05    48   0.907E-03    0.269E-03
DAV:  17    -0.743220472009E+02   -0.86082E-04   -0.12461E-05    48   0.762E-03
   6 F= -.74322047E+02 E0= -.74263186E+02  d E =-.596811E+01
       N       E                     dE             d eps       ncg     rms          rms(c)
DAV:   1    -0.701732269408E+02    0.41487E+01   -0.39024E+02    96   0.147E+02    0.746E+00
DAV:   2    -0.759535301752E+02   -0.57803E+01   -0.68551E+01   112   0.367E+01    0.130E+01
DAV:   3    -0.747952653949E+02    0.11583E+01   -0.27612E+01   144   0.188E+01    0.728E+00
DAV:   4    -0.738103802486E+02    0.98489E+00   -0.48230E+00   136   0.641E+00    0.296E+00
DAV:   5    -0.737314649318E+02    0.78915E-01   -0.19657E+00   128   0.307E+00    0.277E+00
DAV:   6    -0.736675742682E+02    0.63891E-01   -0.10557E+00   144   0.246E+00    0.157E+00
DAV:   7    -0.736533909747E+02    0.14183E-01   -0.22386E-01   144   0.161E+00    0.903E-01
DAV:   8    -0.736553443768E+02   -0.19534E-02   -0.15541E-01   136   0.137E+00    0.731E-01
DAV:   9    -0.736505646239E+02    0.47798E-02   -0.47242E-02   136   0.827E-01    0.164E-01
DAV:  10    -0.736520712446E+02   -0.15066E-02   -0.31726E-03   136   0.192E-01    0.138E-01
DAV:  11    -0.736526425572E+02   -0.57131E-03   -0.95755E-04   104   0.102E-01    0.459E-02
DAV:  12    -0.736532069241E+02   -0.56437E-03   -0.20751E-04    72   0.607E-02    0.351E-02
DAV:  13    -0.736537525404E+02   -0.54562E-03   -0.23123E-04    88   0.464E-02    0.259E-02
DAV:  14    -0.736541463227E+02   -0.39378E-03   -0.62338E-05    48   0.274E-02    0.101E-02
DAV:  15    -0.736546468887E+02   -0.50057E-03   -0.76950E-05    64   0.180E-02    0.145E-02
DAV:  16    -0.736551182416E+02   -0.47135E-03   -0.90574E-05    56   0.192E-02    0.147E-02
DAV:  17    -0.736553459941E+02   -0.22775E-03   -0.40442E-05    48   0.147E-02    0.464E-03
DAV:  18    -0.736554989635E+02   -0.15297E-03   -0.19317E-05    48   0.948E-03    0.249E-03
DAV:  19    -0.736556168432E+02   -0.11788E-03   -0.16299E-05    48   0.818E-03    0.215E-03
DAV:  20    -0.736556962652E+02   -0.79422E-04   -0.98322E-06    48   0.651E-03
   7 F= -.73655696E+02 E0= -.73594924E+02  d E =-.530176E+01
       N       E                     dE             d eps       ncg     rms          rms(c)
DAV:   1    -0.730073894587E+02    0.64823E+00   -0.20877E+02    96   0.114E+02    0.578E+00
DAV:   2    -0.764996900725E+02   -0.34923E+01   -0.46718E+01   128   0.281E+01    0.931E+00
DAV:   3    -0.745190630815E+02    0.19806E+01   -0.66768E+00   128   0.115E+01    0.278E+00
DAV:   4    -0.746894905462E+02   -0.17043E+00   -0.36217E+00   144   0.445E+00    0.420E+00
DAV:   5    -0.744748268995E+02    0.21466E+00   -0.11919E+00   136   0.324E+00    0.161E+00
DAV:   6    -0.744856988539E+02   -0.10872E-01   -0.39860E-01   136   0.200E+00    0.134E+00
DAV:   7    -0.744756488876E+02    0.10050E-01   -0.20060E-01   128   0.114E+00    0.629E-01
DAV:   8    -0.744793490544E+02   -0.37002E-02   -0.12144E-01   136   0.856E-01    0.867E-01
DAV:   9    -0.744716895738E+02    0.76595E-02   -0.57648E-02   136   0.784E-01    0.170E-01
DAV:  10    -0.744730520237E+02   -0.13624E-02   -0.48099E-03   136   0.218E-01    0.967E-02
DAV:  11    -0.744735017796E+02   -0.44976E-03   -0.10382E-03   104   0.105E-01    0.481E-02
DAV:  12    -0.744739090854E+02   -0.40731E-03   -0.22757E-04    64   0.551E-02    0.243E-02
DAV:  13    -0.744743838747E+02   -0.47479E-03   -0.11562E-04    56   0.354E-02    0.131E-02
DAV:  14    -0.744747348435E+02   -0.35097E-03   -0.54061E-05    48   0.231E-02    0.904E-03
DAV:  15    -0.744751085264E+02   -0.37368E-03   -0.48068E-05    56   0.183E-02    0.630E-03
DAV:  16    -0.744754491307E+02   -0.34060E-03   -0.56116E-05    56   0.156E-02    0.506E-03
DAV:  17    -0.744756859245E+02   -0.23679E-03   -0.44398E-05    56   0.128E-02    0.325E-03
DAV:  18    -0.744757915161E+02   -0.10559E-03   -0.22136E-05    48   0.100E-02    0.164E-03
DAV:  19    -0.744758645951E+02   -0.73079E-04   -0.17175E-05    48   0.813E-03
   8 F= -.74475865E+02 E0= -.74412080E+02  d E =-.612193E+01
       N       E                     dE             d eps       ncg     rms          rms(c)
DAV:   1    -0.781875850762E+02   -0.37118E+01   -0.26846E+02    96   0.879E+01    0.650E+00
DAV:   2    -0.801214949906E+02   -0.19339E+01   -0.48908E+01   144   0.190E+01    0.677E+00
DAV:   3    -0.780683941803E+02    0.20531E+01   -0.63536E+00   136   0.872E+00    0.405E+00
DAV:   4    -0.781362789546E+02   -0.67885E-01   -0.49971E+00   136   0.695E+00    0.593E+00
DAV:   5    -0.779286671566E+02    0.20761E+00   -0.48045E+00   144   0.517E+00    0.301E+00
DAV:   6    -0.778393714281E+02    0.89296E-01   -0.79927E-01   136   0.307E+00    0.144E+00
DAV:   7    -0.778249226312E+02    0.14449E-01   -0.43804E-01   136   0.265E+00    0.945E-01
DAV:   8    -0.778132633477E+02    0.11659E-01   -0.10266E-01   136   0.108E+00    0.400E-01
DAV:   9    -0.778131077203E+02    0.15563E-03   -0.30226E-02   128   0.377E-01    0.268E-01
DAV:  10    -0.778133638654E+02   -0.25615E-03   -0.98264E-03   120   0.181E-01    0.138E-01
DAV:  11    -0.778139486589E+02   -0.58479E-03   -0.69283E-03   136   0.126E-01    0.129E-01
DAV:  12    -0.778139320530E+02    0.16606E-04   -0.27662E-03    96   0.813E-02    0.349E-02
DAV:  13    -0.778142391349E+02   -0.30708E-03   -0.22330E-04    64   0.448E-02    0.177E-02
DAV:  14    -0.778145983527E+02   -0.35922E-03   -0.50951E-05    48   0.244E-02    0.156E-02
DAV:  15    -0.778150800517E+02   -0.48170E-03   -0.65945E-05    56   0.209E-02    0.740E-03
DAV:  16    -0.778154101244E+02   -0.33007E-03   -0.62320E-05    48   0.152E-02    0.115E-02
DAV:  17    -0.778156379026E+02   -0.22778E-03   -0.35808E-05    56   0.125E-02    0.519E-03
DAV:  18    -0.778157911723E+02   -0.15327E-03   -0.22710E-05    48   0.975E-03    0.224E-03
DAV:  19    -0.778158864724E+02   -0.95300E-04   -0.13552E-05    48   0.743E-03
   9 F= -.77815886E+02 E0= -.77744471E+02  d E =-.334002E+01
       N       E                     dE             d eps       ncg     rms          rms(c)
DAV:   1    -0.778815852308E+02   -0.65794E-01   -0.64753E+00    96   0.136E+01    0.973E-01
DAV:   2    -0.779414360612E+02   -0.59851E-01   -0.11419E+00   128   0.273E+00    0.192E+00
DAV:   3    -0.778762315348E+02    0.65205E-01   -0.71674E-01   144   0.133E+00    0.984E-01
DAV:   4    -0.778791685843E+02   -0.29370E-02   -0.18167E-01   136   0.116E+00    0.120E+00
DAV:   5    -0.778676972296E+02    0.11471E-01   -0.11018E-01   136   0.799E-01    0.408E-01
DAV:   6    -0.778678671806E+02   -0.16995E-03   -0.17396E-02   136   0.382E-01    0.146E-01
DAV:   7    -0.778678681123E+02   -0.93169E-06   -0.38199E-03   128   0.181E-01    0.755E-02
DAV:   8    -0.778678594465E+02    0.86658E-05   -0.70600E-04   104   0.890E-02
  10 F= -.77867859E+02 E0= -.77797113E+02  d E =-.339199E+01
       N       E                     dE             d eps       ncg     rms          rms(c)
DAV:   1    -0.783331011865E+02   -0.46523E+00   -0.28346E+02    96   0.101E+02    0.647E+00
DAV:   2    -0.788041450040E+02   -0.47104E+00   -0.26287E+01   128   0.226E+01    0.723E+00
DAV:   3    -0.787168611455E+02    0.87284E-01   -0.18907E+01   152   0.137E+01    0.603E+00
DAV:   4    -0.779574407685E+02    0.75942E+00   -0.26613E+00   136   0.573E+00    0.228E+00
DAV:   5    -0.779466412639E+02    0.10800E-01   -0.15391E+00   144   0.345E+00    0.199E+00
DAV:   6    -0.778857208338E+02    0.60920E-01   -0.71025E-01   136   0.216E+00    0.804E-01
DAV:   7    -0.778791983319E+02    0.65225E-02   -0.98692E-02   144   0.838E-01    0.476E-01
DAV:   8    -0.778802439859E+02   -0.10457E-02   -0.24612E-02   144   0.532E-01    0.262E-01
DAV:   9    -0.778800962465E+02    0.14774E-03   -0.10608E-02   136   0.413E-01    0.122E-01
DAV:  10    -0.778804780347E+02   -0.38179E-03   -0.21769E-03   120   0.178E-01    0.651E-02
DAV:  11    -0.778808920216E+02   -0.41399E-03   -0.68033E-04    88   0.888E-02    0.446E-02
DAV:  12    -0.778811575107E+02   -0.26549E-03   -0.22020E-04    72   0.449E-02    0.247E-02
DAV:  13    -0.778815684527E+02   -0.41094E-03   -0.88004E-05    80   0.344E-02    0.122E-02
DAV:  14    -0.778820395490E+02   -0.47110E-03   -0.51642E-05    80   0.204E-02    0.983E-03
DAV:  15    -0.778825154142E+02   -0.47587E-03   -0.57474E-05    80   0.162E-02    0.661E-03
DAV:  16    -0.778828481243E+02   -0.33271E-03   -0.40930E-05    80   0.134E-02    0.413E-03
DAV:  17    -0.778830439972E+02   -0.19587E-03   -0.20671E-05    72   0.108E-02    0.214E-03
DAV:  18    -0.778831587155E+02   -0.11472E-03   -0.15318E-05    72   0.818E-03    0.154E-03
DAV:  19    -0.778832291605E+02   -0.70445E-04   -0.86438E-06    72   0.613E-03
  11 F= -.77883229E+02 E0= -.77825975E+02  d E =-.153697E-01
       N       E                     dE             d eps       ncg     rms          rms(c)
DAV:   1    -0.792104571140E+02   -0.13273E+01   -0.70425E+01    96   0.501E+01    0.376E+00
DAV:   2    -0.798659331318E+02   -0.65548E+00   -0.16735E+01   144   0.122E+01    0.542E+00
DAV:   3    -0.791145168944E+02    0.75142E+00   -0.53605E+00   144   0.716E+00    0.401E+00
DAV:   4    -0.790181935480E+02    0.96323E-01   -0.25521E+00   136   0.415E+00    0.239E+00
DAV:   5    -0.789767221500E+02    0.41471E-01   -0.57888E-01   144   0.186E+00    0.130E+00
DAV:   6    -0.789558911637E+02    0.20831E-01   -0.35415E-01   136   0.106E+00    0.600E-01
DAV:   7    -0.789536386775E+02    0.22525E-02   -0.80314E-02   128   0.731E-01    0.345E-01
DAV:   8    -0.789523053595E+02    0.13333E-02   -0.23688E-02   136   0.586E-01    0.159E-01
DAV:   9    -0.789525377850E+02   -0.23243E-03   -0.43156E-03   136   0.296E-01    0.959E-02
DAV:  10    -0.789527009186E+02   -0.16313E-03   -0.13594E-03   120   0.138E-01    0.785E-02
DAV:  11    -0.789528063375E+02   -0.10542E-03   -0.59804E-04    80   0.723E-02    0.321E-02
DAV:  12    -0.789529749902E+02   -0.16865E-03   -0.10692E-04    72   0.407E-02    0.112E-02
DAV:  13    -0.789531053889E+02   -0.13040E-03   -0.29876E-05    72   0.193E-02    0.669E-03
DAV:  14    -0.789532825508E+02   -0.17716E-03   -0.23746E-05    72   0.147E-02    0.651E-03
DAV:  15    -0.789534284314E+02   -0.14588E-03   -0.24178E-05    72   0.115E-02    0.541E-03
DAV:  16    -0.789535198392E+02   -0.91408E-04   -0.12069E-05    72   0.810E-03
  12 F= -.78953520E+02 E0= -.78889724E+02  d E =-.108566E+01
       N       E                     dE             d eps       ncg     rms          rms(c)
DAV:   1    -0.801417326459E+02   -0.11883E+01   -0.87356E+01    96   0.701E+01    0.348E+00
DAV:   2    -0.808845475047E+02   -0.74281E+00   -0.13116E+01   128   0.157E+01    0.581E+00
DAV:   3    -0.805710865056E+02    0.31346E+00   -0.74915E+00   152   0.849E+00    0.383E+00
DAV:   4    -0.803552652978E+02    0.21582E+00   -0.13711E+00   136   0.432E+00    0.142E+00
DAV:   5    -0.803407009756E+02    0.14564E-01   -0.48095E-01   136   0.159E+00    0.978E-01
DAV:   6    -0.803284848873E+02    0.12216E-01   -0.14850E-01   128   0.961E-01    0.412E-01
DAV:   7    -0.803299935681E+02   -0.15087E-02   -0.19743E-02   136   0.504E-01    0.210E-01
DAV:   8    -0.803302588375E+02   -0.26527E-03   -0.82972E-03   136   0.414E-01    0.153E-01
DAV:   9    -0.803302185294E+02    0.40308E-04   -0.38463E-03   136   0.236E-01    0.677E-02
DAV:  10    -0.803303185809E+02   -0.10005E-03   -0.78064E-04    88   0.799E-02    0.361E-02
DAV:  11    -0.803304285485E+02   -0.10997E-03   -0.17406E-04    72   0.403E-02    0.182E-02
DAV:  12    -0.803305087355E+02   -0.80187E-04   -0.47929E-05    72   0.257E-02
  13 F= -.80330509E+02 E0= -.80274253E+02  d E =-.137699E+01
       N       E                     dE             d eps       ncg     rms          rms(c)
DAV:   1    -0.804191980040E+02   -0.88769E-01   -0.14485E+01    96   0.289E+01    0.146E+00
DAV:   2    -0.805519740317E+02   -0.13278E+00   -0.23290E+00   128   0.616E+00    0.257E+00
DAV:   3    -0.804818665892E+02    0.70107E-01   -0.13637E+00   144   0.326E+00    0.174E+00
DAV:   4    -0.804496306915E+02    0.32236E-01   -0.31557E-01   136   0.183E+00    0.622E-01
DAV:   5    -0.804472925512E+02    0.23381E-02   -0.72620E-02   128   0.668E-01    0.334E-01
DAV:   6    -0.804464058233E+02    0.88673E-03   -0.21798E-02   128   0.404E-01    0.158E-01
DAV:   7    -0.804466029728E+02   -0.19715E-03   -0.36881E-03   136   0.250E-01    0.109E-01
DAV:   8    -0.804465856160E+02    0.17357E-04   -0.19396E-03   120   0.175E-01    0.652E-02
DAV:   9    -0.804466612939E+02   -0.75678E-04   -0.49022E-04    96   0.936E-02
  14 F= -.80446661E+02 E0= -.80392700E+02  d E =-.149314E+01
       N       E                     dE             d eps       ncg     rms          rms(c)
DAV:   1    -0.812844712520E+02   -0.83789E+00   -0.64543E+01    96   0.641E+01    0.222E+00
DAV:   2    -0.817405204780E+02   -0.45605E+00   -0.60073E+00    96   0.124E+01    0.221E+00
DAV:   3    -0.817414902517E+02   -0.96977E-03   -0.13713E+00   144   0.464E+00    0.242E+00
DAV:   4    -0.816865119164E+02    0.54978E-01   -0.73888E-01   152   0.256E+00    0.106E+00
DAV:   5    -0.816801984700E+02    0.63134E-02   -0.14907E-01   144   0.210E+00    0.696E-01
DAV:   6    -0.816780091803E+02    0.21893E-02   -0.85143E-02   136   0.123E+00    0.424E-01
DAV:   7    -0.816755445075E+02    0.24647E-02   -0.29938E-02   152   0.566E-01    0.158E-01
DAV:   8    -0.816757624535E+02   -0.21795E-03   -0.32692E-03   128   0.211E-01    0.623E-02
DAV:   9    -0.816760565915E+02   -0.29414E-03   -0.43212E-04    96   0.845E-02    0.300E-02
DAV:  10    -0.816762863558E+02   -0.22976E-03   -0.92104E-05    72   0.439E-02    0.185E-02
DAV:  11    -0.816764078779E+02   -0.12152E-03   -0.55179E-05    72   0.275E-02    0.139E-02
DAV:  12    -0.816765781325E+02   -0.17025E-03   -0.26699E-05    72   0.247E-02    0.596E-03
DAV:  13    -0.816767554133E+02   -0.17728E-03   -0.23857E-05    72   0.131E-02    0.435E-03
DAV:  14    -0.816769100049E+02   -0.15459E-03   -0.16874E-05    72   0.108E-02    0.420E-03
DAV:  15    -0.816770358475E+02   -0.12584E-03   -0.15812E-05    72   0.970E-03    0.223E-03
DAV:  16    -0.816771278535E+02   -0.92006E-04   -0.14729E-05    72   0.754E-03
  15 F= -.81677128E+02 E0= -.81623209E+02  d E =-.123047E+01
       N       E                     dE             d eps       ncg     rms          rms(c)
DAV:   1    -0.804535997102E+02    0.12234E+01   -0.35039E+02   104   0.142E+02    0.603E+00
DAV:   2    -0.835348614461E+02   -0.30813E+01   -0.39443E+01   128   0.317E+01    0.607E+00
DAV:   3    -0.829429829410E+02    0.59188E+00   -0.46976E+00   136   0.114E+01    0.391E+00
DAV:   4    -0.827761267250E+02    0.16686E+00   -0.22073E+00   136   0.565E+00    0.220E+00
DAV:   5    -0.827311790846E+02    0.44948E-01   -0.59402E-01   136   0.391E+00    0.118E+00
DAV:   6    -0.827339241451E+02   -0.27451E-02   -0.26727E-01   136   0.229E+00    0.112E+00
DAV:   7    -0.827166854196E+02    0.17239E-01   -0.14045E-01   136   0.144E+00    0.314E-01
DAV:   8    -0.827184281379E+02   -0.17427E-02   -0.19904E-02   128   0.581E-01    0.189E-01
DAV:   9    -0.827187580523E+02   -0.32991E-03   -0.55899E-03   128   0.237E-01    0.885E-02
DAV:  10    -0.827194327106E+02   -0.67466E-03   -0.16010E-03   112   0.132E-01    0.568E-02
DAV:  11    -0.827197975097E+02   -0.36480E-03   -0.51028E-04    80   0.721E-02    0.292E-02
DAV:  12    -0.827203968213E+02   -0.59931E-03   -0.16174E-04    88   0.600E-02    0.135E-02
DAV:  13    -0.827208048251E+02   -0.40800E-03   -0.42494E-05    72   0.266E-02    0.824E-03
DAV:  14    -0.827213196937E+02   -0.51487E-03   -0.83976E-05    80   0.226E-02    0.687E-03
DAV:  15    -0.827216672071E+02   -0.34751E-03   -0.50551E-05    80   0.171E-02    0.426E-03
DAV:  16    -0.827218445369E+02   -0.17733E-03   -0.16136E-05    72   0.101E-02    0.216E-03
DAV:  17    -0.827219666929E+02   -0.12216E-03   -0.17121E-05    72   0.830E-03    0.140E-03
DAV:  18    -0.827220232391E+02   -0.56546E-04   -0.69865E-06    72   0.590E-03
  16 F= -.82722023E+02 E0= -.82664927E+02  d E =-.227536E+01
       N       E                     dE             d eps       ncg     rms          rms(c)
DAV:   1    -0.826522364498E+02    0.69730E-01   -0.29774E+01   104   0.429E+01    0.175E+00
DAV:   2    -0.829165346473E+02   -0.26430E+00   -0.32600E+00   128   0.964E+00    0.340E+00
DAV:   3    -0.828020712461E+02    0.11446E+00   -0.13391E+00   144   0.475E+00    0.116E+00
DAV:   4    -0.827886510316E+02    0.13420E-01   -0.93984E-02   128   0.167E+00    0.506E-01
DAV:   5    -0.827894037497E+02   -0.75272E-03   -0.53782E-02   128   0.105E+00    0.419E-01
DAV:   6    -0.827869315138E+02    0.24722E-02   -0.22294E-02   136   0.762E-01    0.182E-01
DAV:   7    -0.827870432873E+02   -0.11177E-03   -0.80901E-03   136   0.412E-01    0.133E-01
DAV:   8    -0.827869233230E+02    0.11996E-03   -0.21151E-03   128   0.207E-01    0.432E-02
DAV:   9    -0.827870765073E+02   -0.15318E-03   -0.21434E-04    72   0.620E-02    0.202E-02
DAV:  10    -0.827871645087E+02   -0.88001E-04   -0.59927E-05    72   0.344E-02
  17 F= -.82787165E+02 E0= -.82730480E+02  d E =-.234050E+01
       N       E                     dE             d eps       ncg     rms          rms(c)
DAV:   1    -0.840200233346E+02   -0.12329E+01   -0.73663E+01    96   0.548E+01    0.306E+00
DAV:   2    -0.844219532145E+02   -0.40193E+00   -0.65582E+00   120   0.125E+01    0.385E+00
DAV:   3    -0.841717982897E+02    0.25015E+00   -0.17856E+00   136   0.588E+00    0.183E+00
DAV:   4    -0.841487254855E+02    0.23073E-01   -0.90507E-01   136   0.298E+00    0.127E+00
DAV:   5    -0.841233696262E+02    0.25356E-01   -0.23828E-01   136   0.243E+00    0.724E-01
DAV:   6    -0.841233380855E+02    0.31541E-04   -0.13515E-01   136   0.174E+00    0.631E-01
DAV:   7    -0.841179332333E+02    0.54049E-02   -0.42705E-02   136   0.113E+00    0.186E-01
DAV:   8    -0.841183468402E+02   -0.41361E-03   -0.36414E-03   128   0.323E-01    0.111E-01
DAV:   9    -0.841184429780E+02   -0.96138E-04   -0.10294E-03   120   0.122E-01    0.558E-02
DAV:  10    -0.841185690316E+02   -0.12605E-03   -0.22272E-04    80   0.830E-02    0.163E-02
DAV:  11    -0.841186632209E+02   -0.94189E-04   -0.65492E-05    72   0.377E-02
  18 F= -.84118663E+02 E0= -.84062030E+02  d E =-.133150E+01
       N       E                     dE             d eps       ncg     rms          rms(c)
DAV:   1    -0.842284306909E+02   -0.10986E+00   -0.97362E+00    96   0.198E+01    0.123E+00
DAV:   2    -0.842676111129E+02   -0.39180E-01   -0.90259E-01   128   0.505E+00    0.166E+00
DAV:   3    -0.842308400509E+02    0.36771E-01   -0.32220E-01   136   0.314E+00    0.804E-01
DAV:   4    -0.842241631849E+02    0.66769E-02   -0.12736E-01   136   0.146E+00    0.446E-01
DAV:   5    -0.842213778625E+02    0.27853E-02   -0.32766E-02   128   0.826E-01    0.232E-01
DAV:   6    -0.842218474840E+02   -0.46962E-03   -0.16217E-02   136   0.618E-01    0.226E-01
DAV:   7    -0.842211101088E+02    0.73738E-03   -0.55905E-03   136   0.409E-01    0.735E-02
DAV:   8    -0.842212034206E+02   -0.93312E-04   -0.60579E-04    96   0.126E-01
  19 F= -.84221203E+02 E0= -.84164713E+02  d E =-.143404E+01
       N       E                     dE             d eps       ncg     rms          rms(c)
DAV:   1    -0.846811163655E+02   -0.46001E+00   -0.49805E+01   104   0.616E+01    0.214E+00
DAV:   2    -0.851415214340E+02   -0.46041E+00   -0.57957E+00   120   0.124E+01    0.232E+00
DAV:   3    -0.851112852500E+02    0.30236E-01   -0.89841E-01   128   0.506E+00    0.154E+00
DAV:   4    -0.850821265472E+02    0.29159E-01   -0.27357E-01   128   0.264E+00    0.813E-01
DAV:   5    -0.850787276899E+02    0.33989E-02   -0.16972E-01   128   0.144E+00    0.630E-01
DAV:   6    -0.850780089929E+02    0.71870E-03   -0.78534E-02   136   0.152E+00    0.500E-01
DAV:   7    -0.850741831724E+02    0.38258E-02   -0.25282E-02   128   0.714E-01    0.115E-01
DAV:   8    -0.850745596810E+02   -0.37651E-03   -0.19900E-03   128   0.198E-01    0.694E-02
DAV:   9    -0.850746175858E+02   -0.57905E-04   -0.59416E-04   112   0.130E-01
  20 F= -.85074618E+02 E0= -.85018174E+02  d E =-.853414E+00
       N       E                     dE             d eps       ncg     rms          rms(c)
DAV:   1    -0.850569274505E+02    0.17632E-01   -0.24383E+01   112   0.435E+01    0.151E+00
DAV:   2    -0.852846434038E+02   -0.22772E+00   -0.28998E+00   120   0.869E+00    0.158E+00
DAV:   3    -0.852706341742E+02    0.14009E-01   -0.41241E-01   128   0.326E+00    0.108E+00
DAV:   4    -0.852570913664E+02    0.13543E-01   -0.13331E-01   128   0.179E+00    0.577E-01
DAV:   5    -0.852552445543E+02    0.18468E-02   -0.58405E-02   128   0.968E-01    0.431E-01
DAV:   6    -0.852548894966E+02    0.35506E-03   -0.33342E-02   136   0.101E+00    0.309E-01
DAV:   7    -0.852535582258E+02    0.13313E-02   -0.11324E-02   128   0.490E-01    0.859E-02
DAV:   8    -0.852537654233E+02   -0.20720E-03   -0.11476E-03   128   0.174E-01    0.498E-02
DAV:   9    -0.852538111277E+02   -0.45704E-04   -0.24946E-04    72   0.864E-02
  21 F= -.85253811E+02 E0= -.85197567E+02  d E =-.103261E+01
       N       E                     dE             d eps       ncg     rms          rms(c)
DAV:   1    -0.854404186090E+02   -0.18665E+00   -0.36673E+01   104   0.484E+01    0.213E+00
DAV:   2    -0.857377801587E+02   -0.29736E+00   -0.44324E+00   120   0.101E+01    0.279E+00
DAV:   3    -0.856627381696E+02    0.75042E-01   -0.11210E+00   128   0.452E+00    0.152E+00
DAV:   4    -0.856307466115E+02    0.31992E-01   -0.23470E-01   136   0.253E+00    0.788E-01
DAV:   5    -0.856311350732E+02   -0.38846E-03   -0.16010E-01   144   0.175E+00    0.757E-01
DAV:   6    -0.856242622387E+02    0.68728E-02   -0.71649E-02   136   0.152E+00    0.292E-01
DAV:   7    -0.856236493365E+02    0.61290E-03   -0.14354E-02   136   0.527E-01    0.149E-01
DAV:   8    -0.856235168733E+02    0.13246E-03   -0.22372E-03   136   0.210E-01    0.732E-02
DAV:   9    -0.856235857784E+02   -0.68905E-04   -0.43562E-04    88   0.814E-02
  22 F= -.85623586E+02 E0= -.85567229E+02  d E =-.369775E+00
       N       E                     dE             d eps       ncg     rms          rms(c)
DAV:   1    -0.856254160044E+02   -0.18991E-02   -0.32404E-01   104   0.459E+00    0.200E-01
DAV:   2    -0.856282119030E+02   -0.27959E-02   -0.41329E-02   120   0.950E-01    0.263E-01
DAV:   3    -0.856273984468E+02    0.81346E-03   -0.94110E-03   128   0.458E-01    0.138E-01
DAV:   4    -0.856273214717E+02    0.76975E-04   -0.17996E-03   128   0.210E-01    0.739E-02
DAV:   5    -0.856273751384E+02   -0.53667E-04   -0.12102E-03   112   0.158E-01    0.646E-02
DAV:   6    -0.856273773704E+02   -0.22320E-05   -0.64670E-04   104   0.126E-01
  23 F= -.85627377E+02 E0= -.85571040E+02  d E =-.373566E+00
       N       E                     dE             d eps       ncg     rms          rms(c)
DAV:   1    -0.857690327033E+02   -0.14166E+00   -0.22037E+01   112   0.387E+01    0.133E+00
DAV:   2    -0.859471444698E+02   -0.17811E+00   -0.21808E+00   112   0.736E+00    0.143E+00
DAV:   3    -0.859371819460E+02    0.99625E-02   -0.44039E-01   152   0.284E+00    0.105E+00
DAV:   4    -0.859204239585E+02    0.16758E-01   -0.73699E-02   128   0.158E+00    0.383E-01
DAV:   5    -0.859224875187E+02   -0.20636E-02   -0.36865E-02   128   0.715E-01    0.369E-01
DAV:   6    -0.859206208272E+02    0.18667E-02   -0.20864E-02   136   0.625E-01    0.173E-01
DAV:   7    -0.859206396884E+02   -0.18861E-04   -0.60982E-03   136   0.343E-01    0.106E-01
DAV:   8    -0.859206148411E+02    0.24847E-04   -0.18461E-03   104   0.126E-01    0.421E-02
DAV:   9    -0.859206470851E+02   -0.32244E-04   -0.36852E-04    80   0.621E-02
  24 F= -.85920647E+02 E0= -.85864705E+02  d E =-.293270E+00
       N       E                     dE             d eps       ncg     rms          rms(c)
DAV:   1    -0.859155268603E+02    0.50880E-02   -0.51697E+00   112   0.190E+01    0.636E-01
DAV:   2    -0.859595886881E+02   -0.44062E-01   -0.53287E-01   112   0.361E+00    0.690E-01
DAV:   3    -0.859568039836E+02    0.27847E-02   -0.88262E-02   152   0.140E+00    0.504E-01
DAV:   4    -0.859533426238E+02    0.34614E-02   -0.17981E-02   128   0.706E-01    0.197E-01
DAV:   5    -0.859540386251E+02   -0.69600E-03   -0.93900E-03   136   0.383E-01    0.196E-01
DAV:   6    -0.859535400937E+02    0.49853E-03   -0.58130E-03   136   0.345E-01    0.872E-02
DAV:   7    -0.859535699279E+02   -0.29834E-04   -0.15840E-03   120   0.163E-01    0.484E-02
DAV:   8    -0.859535904780E+02   -0.20550E-04   -0.47035E-04    72   0.556E-02
  25 F= -.85953590E+02 E0= -.85898214E+02  d E =-.326213E+00
       N       E                     dE             d eps       ncg     rms          rms(c)
DAV:   1    -0.861100812799E+02   -0.15651E+00   -0.15659E+01   104   0.323E+01    0.116E+00
DAV:   2    -0.862244276641E+02   -0.11435E+00   -0.15944E+00   120   0.622E+00    0.128E+00
DAV:   3    -0.862113386922E+02    0.13089E-01   -0.27711E-01   144   0.259E+00    0.927E-01
DAV:   4    -0.862019662144E+02    0.93725E-02   -0.65905E-02   136   0.167E+00    0.484E-01
DAV:   5    -0.862015214273E+02    0.44479E-03   -0.41938E-02   136   0.772E-01    0.395E-01
DAV:   6    -0.862005982325E+02    0.92319E-03   -0.27507E-02   136   0.667E-01    0.243E-01
DAV:   7    -0.861998472960E+02    0.75094E-03   -0.69661E-03   136   0.390E-01    0.534E-02
DAV:   8    -0.862000062566E+02   -0.15896E-03   -0.10494E-03   104   0.852E-02    0.450E-02
DAV:   9    -0.862000163687E+02   -0.10112E-04   -0.38124E-04    72   0.468E-02
  26 F= -.86200016E+02 E0= -.86145691E+02  d E =-.246426E+00
       N       E                     dE             d eps       ncg     rms          rms(c)
DAV:   1    -0.861462359493E+02    0.53770E-01   -0.30531E+01   104   0.450E+01    0.162E+00
DAV:   2    -0.863685111722E+02   -0.22228E+00   -0.31229E+00   112   0.885E+00    0.175E+00
DAV:   3    -0.863490075019E+02    0.19504E-01   -0.59271E-01   144   0.357E+00    0.134E+00
DAV:   4    -0.863289010515E+02    0.20106E-01   -0.13013E-01   136   0.247E+00    0.696E-01
DAV:   5    -0.863270360858E+02    0.18650E-02   -0.71411E-02   136   0.107E+00    0.561E-01
DAV:   6    -0.863257675737E+02    0.12685E-02   -0.47991E-02   136   0.913E-01    0.376E-01
DAV:   7    -0.863238901105E+02    0.18775E-02   -0.15355E-02   136   0.595E-01    0.843E-02
DAV:   8    -0.863241561906E+02   -0.26608E-03   -0.27194E-03   120   0.131E-01    0.652E-02
DAV:   9    -0.863241563875E+02   -0.19692E-06   -0.93109E-04    80   0.603E-02
  27 F= -.86324156E+02 E0= -.86271118E+02  d E =-.370566E+00
       N       E                     dE             d eps       ncg     rms          rms(c)
DAV:   1    -0.864451934877E+02   -0.12104E+00   -0.80897E+00   112   0.246E+01    0.726E-01
DAV:   2    -0.865057632421E+02   -0.60570E-01   -0.74655E-01    96   0.449E+00    0.529E-01
DAV:   3    -0.865077537021E+02   -0.19905E-02   -0.63697E-02   144   0.123E+00    0.566E-01
DAV:   4    -0.865044446431E+02    0.33091E-02   -0.25738E-02   136   0.759E-01    0.326E-01
DAV:   5    -0.865055807757E+02   -0.11361E-02   -0.21479E-02   136   0.662E-01    0.357E-01
DAV:   6    -0.865038172239E+02    0.17636E-02   -0.12066E-02   136   0.574E-01    0.103E-01
DAV:   7    -0.865038950019E+02   -0.77778E-04   -0.25703E-03   128   0.145E-01    0.518E-02
DAV:   8    -0.865039383137E+02   -0.43312E-04   -0.34225E-04    72   0.641E-02
  28 F= -.86503938E+02 E0= -.86449841E+02  d E =-.179782E+00
       N       E                     dE             d eps       ncg     rms          rms(c)
DAV:   1    -0.863819942930E+02    0.12190E+00   -0.41438E+01   104   0.552E+01    0.167E+00
DAV:   2    -0.867071575969E+02   -0.32516E+00   -0.40320E+00    96   0.104E+01    0.119E+00
DAV:   3    -0.867090959409E+02   -0.19383E-02   -0.41616E-01   144   0.246E+00    0.107E+00
DAV:   4    -0.866956073859E+02    0.13489E-01   -0.16577E-01   128   0.123E+00    0.628E-01
DAV:   5    -0.867002619670E+02   -0.46546E-02   -0.11652E-01   128   0.114E+00    0.712E-01
DAV:   6    -0.866936685473E+02    0.65934E-02   -0.53859E-02   120   0.108E+00    0.392E-01
DAV:   7    -0.866924996899E+02    0.11689E-02   -0.14777E-02   136   0.548E-01    0.167E-01
DAV:   8    -0.866924793496E+02    0.20340E-04   -0.19788E-03   128   0.219E-01    0.526E-02
DAV:   9    -0.866926589452E+02   -0.17960E-03   -0.48528E-04    96   0.102E-01    0.402E-02
DAV:  10    -0.866928177671E+02   -0.15882E-03   -0.12245E-04    72   0.586E-02    0.151E-02
DAV:  11    -0.866929783250E+02   -0.16056E-03   -0.42048E-05    72   0.264E-02    0.722E-03
DAV:  12    -0.866931711005E+02   -0.19278E-03   -0.22228E-05    72   0.178E-02    0.440E-03
DAV:  13    -0.866933554558E+02   -0.18436E-03   -0.20934E-05    64   0.126E-02    0.302E-03
DAV:  14    -0.866935068543E+02   -0.15140E-03   -0.21481E-05    72   0.100E-02    0.271E-03
DAV:  15    -0.866935951869E+02   -0.88333E-04   -0.91215E-06    56   0.749E-03
  29 F= -.86693595E+02 E0= -.86636921E+02  d E =-.369439E+00
       N       E                     dE             d eps       ncg     rms          rms(c)
DAV:   1    -0.867881436216E+02   -0.94637E-01   -0.86838E+00   112   0.267E+01    0.828E-01
DAV:   2    -0.868614136840E+02   -0.73270E-01   -0.95452E-01    96   0.503E+00    0.645E-01
DAV:   3    -0.868578039625E+02    0.36097E-02   -0.12301E-01   136   0.108E+00    0.469E-01
DAV:   4    -0.868559758748E+02    0.18281E-02   -0.33564E-02   136   0.523E-01    0.310E-01
DAV:   5    -0.868563424169E+02   -0.36654E-03   -0.26005E-02   128   0.497E-01    0.315E-01
DAV:   6    -0.868559836230E+02    0.35879E-03   -0.12886E-02   120   0.465E-01    0.261E-01
DAV:   7    -0.868552813076E+02    0.70232E-03   -0.49475E-03   128   0.321E-01    0.884E-02
DAV:   8    -0.868553261054E+02   -0.44798E-04   -0.77065E-04   104   0.140E-01
  30 F= -.86855326E+02 E0= -.86800047E+02  d E =-.161731E+00
       N       E                     dE             d eps       ncg     rms          rms(c)
DAV:   1    -0.867700619334E+02    0.85219E-01   -0.24809E+01   112   0.448E+01    0.142E+00
DAV:   2    -0.869845928213E+02   -0.21453E+00   -0.27462E+00   104   0.859E+00    0.123E+00
DAV:   3    -0.869807082002E+02    0.38846E-02   -0.40708E-01   136   0.214E+00    0.120E+00
DAV:   4    -0.869690129725E+02    0.11695E-01   -0.14361E-01   136   0.149E+00    0.742E-01
DAV:   5    -0.869679396463E+02    0.10733E-02   -0.97474E-02   144   0.113E+00    0.643E-01
DAV:   6    -0.869656178049E+02    0.23218E-02   -0.38410E-02   136   0.908E-01    0.360E-01
DAV:   7    -0.869637779973E+02    0.18398E-02   -0.15463E-02   144   0.489E-01    0.131E-01
DAV:   8    -0.869639269481E+02   -0.14895E-03   -0.22475E-03   136   0.213E-01    0.616E-02
DAV:   9    -0.869640393760E+02   -0.11243E-03   -0.35549E-04    96   0.877E-02    0.256E-02
DAV:  10    -0.869641798446E+02   -0.14047E-03   -0.60063E-05    72   0.396E-02    0.121E-02
DAV:  11    -0.869642890622E+02   -0.10922E-03   -0.20281E-05    72   0.206E-02    0.623E-03
DAV:  12    -0.869644347964E+02   -0.14573E-03   -0.15686E-05    64   0.137E-02    0.335E-03
DAV:  13    -0.869645647418E+02   -0.12995E-03   -0.14657E-05    64   0.961E-03    0.291E-03
DAV:  14    -0.869646538435E+02   -0.89102E-04   -0.91272E-06    64   0.761E-03
  31 F= -.86964654E+02 E0= -.86912377E+02  d E =-.271059E+00
       N       E                     dE             d eps       ncg     rms          rms(c)
DAV:   1    -0.870230102755E+02   -0.58446E-01   -0.87332E+00   112   0.283E+01    0.813E-01
DAV:   2    -0.871119847598E+02   -0.88974E-01   -0.10752E+00    96   0.547E+00    0.646E-01
DAV:   3    -0.871139545688E+02   -0.19698E-02   -0.13772E-01   144   0.139E+00    0.632E-01
DAV:   4    -0.871093752699E+02    0.45793E-02   -0.56802E-02   136   0.816E-01    0.425E-01
DAV:   5    -0.871094495035E+02   -0.74234E-04   -0.16335E-02   136   0.616E-01    0.348E-01
DAV:   6    -0.871087493369E+02    0.70017E-03   -0.16469E-02   144   0.501E-01    0.183E-01
DAV:   7    -0.871084673419E+02    0.28200E-03   -0.40994E-03   136   0.182E-01    0.489E-02
DAV:   8    -0.871085836333E+02   -0.11629E-03   -0.47612E-04   104   0.783E-02    0.348E-02
DAV:   9    -0.871085888427E+02   -0.52094E-05   -0.13412E-04    72   0.503E-02
  32 F= -.87108589E+02 E0= -.87061294E+02  d E =-.143935E+00
       N       E                     dE             d eps       ncg     rms          rms(c)
DAV:   1    -0.866027112722E+02    0.50587E+00   -0.79728E+01   112   0.825E+01    0.243E+00
DAV:   2    -0.874648629988E+02   -0.86215E+00   -0.98703E+00    96   0.170E+01    0.186E+00
DAV:   3    -0.875020904641E+02   -0.37227E-01   -0.98102E-01   152   0.459E+00    0.207E+00
DAV:   4    -0.874514228187E+02    0.50668E-01   -0.33660E-01   136   0.292E+00    0.107E+00
DAV:   5    -0.874614526874E+02   -0.10030E-01   -0.30373E-01   136   0.172E+00    0.127E+00
DAV:   6    -0.874424449015E+02    0.19008E-01   -0.10064E-01   136   0.124E+00    0.328E-01
DAV:   7    -0.874431776773E+02   -0.73278E-03   -0.13381E-02   144   0.499E-01    0.151E-01
DAV:   8    -0.874431181284E+02    0.59549E-04   -0.40232E-03   128   0.192E-01    0.884E-02
DAV:   9    -0.874434218540E+02   -0.30373E-03   -0.39727E-04    96   0.982E-02    0.527E-02
DAV:  10    -0.874437596254E+02   -0.33777E-03   -0.12995E-04    72   0.562E-02    0.155E-02
DAV:  11    -0.874439405441E+02   -0.18092E-03   -0.50079E-05    72   0.294E-02    0.869E-03
DAV:  12    -0.874441520365E+02   -0.21149E-03   -0.24919E-05    72   0.183E-02    0.660E-03
DAV:  13    -0.874444759196E+02   -0.32388E-03   -0.44069E-05    80   0.149E-02    0.461E-03
DAV:  14    -0.874446702257E+02   -0.19431E-03   -0.18188E-05    72   0.103E-02    0.302E-03
DAV:  15    -0.874447808476E+02   -0.11062E-03   -0.14454E-05    72   0.840E-03    0.152E-03
DAV:  16    -0.874448466369E+02   -0.65789E-04   -0.76914E-06    72   0.631E-03
  33 F= -.87444847E+02 E0= -.87416657E+02  d E =-.480193E+00
       N       E                     dE             d eps       ncg     rms          rms(c)
DAV:   1    -0.831119414146E+02    0.43328E+01   -0.32767E+02   112   0.156E+02    0.547E+00
DAV:   2    -0.885370116672E+02   -0.54251E+01   -0.52855E+01    96   0.378E+01    0.130E+01
DAV:   3    -0.876541161159E+02    0.88290E+00   -0.15766E+01   136   0.154E+01    0.411E+00
DAV:   4    -0.874611890660E+02    0.19293E+00   -0.93176E-01   136   0.445E+00    0.236E+00
DAV:   5    -0.874431961329E+02    0.17993E-01   -0.50266E-01   136   0.389E+00    0.183E+00
DAV:   6    -0.874071410745E+02    0.36055E-01   -0.37721E-01   136   0.266E+00    0.829E-01
DAV:   7    -0.874003116117E+02    0.68295E-02   -0.14060E-01   144   0.901E-01    0.457E-01
DAV:   8    -0.873993931281E+02    0.91848E-03   -0.20390E-02   128   0.387E-01    0.219E-01
DAV:   9    -0.874001241294E+02   -0.73100E-03   -0.20612E-03   136   0.193E-01    0.116E-01
DAV:  10    -0.874007432407E+02   -0.61911E-03   -0.61205E-04   112   0.822E-02    0.663E-02
DAV:  11    -0.874010080025E+02   -0.26476E-03   -0.14509E-04    80   0.502E-02    0.338E-02
DAV:  12    -0.874013433107E+02   -0.33531E-03   -0.11846E-04    72   0.347E-02    0.118E-02
DAV:  13    -0.874017520998E+02   -0.40879E-03   -0.60153E-05    80   0.228E-02    0.177E-02
DAV:  14    -0.874021395315E+02   -0.38743E-03   -0.40985E-05    72   0.192E-02    0.796E-03
DAV:  15    -0.874023914782E+02   -0.25195E-03   -0.36646E-05    80   0.126E-02    0.339E-03
DAV:  16    -0.874025554538E+02   -0.16398E-03   -0.15669E-05    72   0.945E-03    0.175E-03
DAV:  17    -0.874026398906E+02   -0.84437E-04   -0.85596E-06    72   0.661E-03
  34 F= -.87402640E+02 E0= -.87384849E+02  d E =-.437986E+00
       N       E                     dE             d eps       ncg     rms          rms(c)
DAV:   1    -0.864968886826E+02    0.90567E+00   -0.11953E+02   112   0.980E+01    0.308E+00
DAV:   2    -0.876430102493E+02   -0.11461E+01   -0.13629E+01    96   0.200E+01    0.326E+00
DAV:   3    -0.876849311172E+02   -0.41921E-01   -0.27383E+00   152   0.629E+00    0.288E+00
DAV:   4    -0.875818594335E+02    0.10307E+00   -0.59526E-01   136   0.403E+00    0.132E+00
DAV:   5    -0.875784908386E+02    0.33686E-02   -0.22961E-01   136   0.228E+00    0.975E-01
DAV:   6    -0.875751636372E+02    0.33272E-02   -0.13419E-01   136   0.170E+00    0.578E-01
DAV:   7    -0.875707711033E+02    0.43925E-02   -0.35037E-02   136   0.494E-01    0.242E-01
DAV:   8    -0.875711656233E+02   -0.39452E-03   -0.41849E-03   136   0.237E-01    0.772E-02
DAV:   9    -0.875717046345E+02   -0.53901E-03   -0.73979E-04   120   0.109E-01    0.354E-02
DAV:  10    -0.875720451360E+02   -0.34050E-03   -0.18511E-04    80   0.502E-02    0.246E-02
DAV:  11    -0.875723611443E+02   -0.31601E-03   -0.68492E-05    80   0.324E-02    0.115E-02
DAV:  12    -0.875726642328E+02   -0.30309E-03   -0.45468E-05    80   0.195E-02    0.595E-03
DAV:  13    -0.875729440220E+02   -0.27979E-03   -0.45980E-05    80   0.154E-02    0.410E-03
DAV:  14    -0.875731448633E+02   -0.20084E-03   -0.38098E-05    72   0.125E-02    0.322E-03
DAV:  15    -0.875732333404E+02   -0.88477E-04   -0.14097E-05    72   0.866E-03
  35 F= -.87573233E+02 E0= -.87555203E+02  d E =-.608579E+00
       N       E                     dE             d eps       ncg     rms          rms(c)
DAV:   1    -0.875999565400E+02   -0.26812E-01   -0.27053E+01   112   0.502E+01    0.140E+00
DAV:   2    -0.878780860255E+02   -0.27813E+00   -0.33645E+00    96   0.964E+00    0.880E-01
DAV:   3    -0.878917535878E+02   -0.13668E-01   -0.25781E-01   144   0.221E+00    0.114E+00
DAV:   4    -0.878810624843E+02    0.10691E-01   -0.19621E-01   136   0.145E+00    0.755E-01
DAV:   5    -0.878804009079E+02    0.66158E-03   -0.45434E-02   144   0.994E-01    0.462E-01
DAV:   6    -0.878779477119E+02    0.24532E-02   -0.23427E-02   144   0.725E-01    0.168E-01
DAV:   7    -0.878780712645E+02   -0.12355E-03   -0.35152E-03   128   0.200E-01    0.787E-02
DAV:   8    -0.878780847086E+02   -0.13444E-04   -0.75189E-04   112   0.910E-02
  36 F= -.87878085E+02 E0= -.87865733E+02  d E =-.304851E+00
       N       E                     dE             d eps       ncg     rms          rms(c)
DAV:   1    -0.872876885722E+02    0.59038E+00   -0.73356E+01   112   0.811E+01    0.226E+00
DAV:   2    -0.881054456089E+02   -0.81776E+00   -0.94910E+00    96   0.162E+01    0.172E+00
DAV:   3    -0.881750933973E+02   -0.69648E-01   -0.12274E+00   144   0.443E+00    0.254E+00
DAV:   4    -0.880890742735E+02    0.86019E-01   -0.35269E-01   128   0.256E+00    0.688E-01
DAV:   5    -0.880936927703E+02   -0.46185E-02   -0.78307E-02   144   0.952E-01    0.504E-01
DAV:   6    -0.880909964423E+02    0.26963E-02   -0.46942E-02   144   0.556E-01    0.191E-01
DAV:   7    -0.880913593675E+02   -0.36293E-03   -0.68369E-03   136   0.291E-01    0.156E-01
DAV:   8    -0.880913360491E+02    0.23318E-04   -0.18300E-03   136   0.213E-01    0.924E-02
DAV:   9    -0.880916987069E+02   -0.36266E-03   -0.30171E-04    88   0.946E-02    0.320E-02
DAV:  10    -0.880918963387E+02   -0.19763E-03   -0.12968E-04    72   0.393E-02    0.133E-02
DAV:  11    -0.880920539428E+02   -0.15760E-03   -0.30396E-05    72   0.232E-02    0.741E-03
DAV:  12    -0.880923066810E+02   -0.25274E-03   -0.23535E-05    72   0.156E-02    0.572E-03
DAV:  13    -0.880925637270E+02   -0.25705E-03   -0.33669E-05    72   0.123E-02    0.395E-03
DAV:  14    -0.880927266212E+02   -0.16289E-03   -0.15692E-05    64   0.883E-03    0.177E-03
DAV:  15    -0.880928153738E+02   -0.88753E-04   -0.10444E-05    64   0.683E-03
  37 F= -.88092815E+02 E0= -.88084234E+02  d E =-.519582E+00
       N       E                     dE             d eps       ncg     rms          rms(c)
DAV:   1    -0.880738720463E+02    0.18855E-01   -0.27687E+01   112   0.520E+01    0.136E+00
DAV:   2    -0.883622913903E+02   -0.28842E+00   -0.34128E+00    96   0.976E+00    0.100E+00
DAV:   3    -0.883810355339E+02   -0.18744E-01   -0.31243E-01   144   0.261E+00    0.139E+00
DAV:   4    -0.883626759397E+02    0.18360E-01   -0.21140E-01   136   0.158E+00    0.668E-01
DAV:   5    -0.883623368934E+02    0.33905E-03   -0.45273E-02   144   0.883E-01    0.437E-01
DAV:   6    -0.883612760509E+02    0.10608E-02   -0.20089E-02   136   0.710E-01    0.168E-01
DAV:   7    -0.883613356536E+02   -0.59603E-04   -0.29893E-03   144   0.218E-01    0.754E-02
DAV:   8    -0.883613852979E+02   -0.49644E-04   -0.70764E-04   112   0.909E-02
  38 F= -.88361385E+02 E0= -.88354200E+02  d E =-.268570E+00
       N       E                     dE             d eps       ncg     rms          rms(c)
DAV:   1    -0.882947420873E+02    0.66594E-01   -0.11652E+01   112   0.339E+01    0.871E-01
DAV:   2    -0.884117194057E+02   -0.11698E+00   -0.14016E+00    96   0.619E+00    0.627E-01
DAV:   3    -0.884200739659E+02   -0.83546E-02   -0.13194E-01   152   0.163E+00    0.898E-01
DAV:   4    -0.884118588309E+02    0.82151E-02   -0.84325E-02   136   0.100E+00    0.403E-01
DAV:   5    -0.884124262000E+02   -0.56737E-03   -0.17220E-02   136   0.554E-01    0.272E-01
DAV:   6    -0.884121286086E+02    0.29759E-03   -0.82539E-03   136   0.457E-01    0.972E-02
DAV:   7    -0.884122814448E+02   -0.15284E-03   -0.10135E-03   136   0.143E-01    0.465E-02
DAV:   8    -0.884123580522E+02   -0.76607E-04   -0.20905E-04    72   0.572E-02
  39 F= -.88412358E+02 E0= -.88405480E+02  d E =-.319543E+00
       N       E                     dE             d eps       ncg     rms          rms(c)
DAV:   1    -0.886115567785E+02   -0.19928E+00   -0.10118E+01   112   0.287E+01    0.103E+00
DAV:   2    -0.887357493075E+02   -0.12419E+00   -0.13171E+00   112   0.557E+00    0.199E+00
DAV:   3    -0.886799770556E+02    0.55772E-01   -0.30924E-01   128   0.256E+00    0.580E-01
DAV:   4    -0.886797355033E+02    0.24155E-03   -0.43064E-02   128   0.810E-01    0.329E-01
DAV:   5    -0.886793126639E+02    0.42284E-03   -0.14621E-02   136   0.480E-01    0.172E-01
DAV:   6    -0.886797043485E+02   -0.39168E-03   -0.16780E-03   128   0.173E-01    0.851E-02
DAV:   7    -0.886799768927E+02   -0.27254E-03   -0.81475E-04   112   0.126E-01    0.626E-02
DAV:   8    -0.886800041470E+02   -0.27254E-04   -0.30649E-04   104   0.972E-02
  40 F= -.88680004E+02 E0= -.88672606E+02  d E =-.267646E+00
       N       E                     dE             d eps       ncg     rms          rms(c)
DAV:   1    -0.886682411185E+02    0.11736E-01   -0.27988E+01   112   0.471E+01    0.170E+00
DAV:   2    -0.889579750124E+02   -0.28973E+00   -0.33600E+00   112   0.916E+00    0.263E+00
DAV:   3    -0.888583750046E+02    0.99600E-01   -0.60824E-01   112   0.401E+00    0.904E-01
DAV:   4    -0.888553019929E+02    0.30730E-02   -0.10417E-01   120   0.148E+00    0.480E-01
DAV:   5    -0.888555766756E+02   -0.27468E-03   -0.38829E-02   136   0.841E-01    0.310E-01
DAV:   6    -0.888556751671E+02   -0.98491E-04   -0.93274E-03   136   0.495E-01    0.170E-01
DAV:   7    -0.888559136274E+02   -0.23846E-03   -0.28000E-03   136   0.258E-01    0.101E-01
DAV:   8    -0.888560706329E+02   -0.15701E-03   -0.69970E-04   112   0.117E-01    0.249E-02
DAV:   9    -0.888563009747E+02   -0.23034E-03   -0.94779E-05    80   0.433E-02    0.135E-02
DAV:  10    -0.888565002994E+02   -0.19932E-03   -0.39107E-05    80   0.235E-02    0.676E-03
DAV:  11    -0.888566722547E+02   -0.17196E-03   -0.18085E-05    80   0.148E-02    0.519E-03
DAV:  12    -0.888568938878E+02   -0.22163E-03   -0.27732E-05    80   0.128E-02    0.285E-03
DAV:  13    -0.888570326907E+02   -0.13880E-03   -0.16848E-05    80   0.920E-03    0.214E-03
DAV:  14    -0.888571341184E+02   -0.10143E-03   -0.11673E-05    64   0.775E-03    0.114E-03
DAV:  15    -0.888571743745E+02   -0.40256E-04   -0.66125E-06    48   0.558E-03
  41 F= -.88857174E+02 E0= -.88847701E+02  d E =-.444816E+00
       N       E                     dE             d eps       ncg     rms          rms(c)
DAV:   1    -0.890023722500E+02   -0.14524E+00   -0.71519E+00   112   0.235E+01    0.754E-01
DAV:   2    -0.890696737562E+02   -0.67302E-01   -0.77160E-01    96   0.410E+00    0.103E+00
DAV:   3    -0.890583116500E+02    0.11362E-01   -0.12386E-01   128   0.174E+00    0.511E-01
DAV:   4    -0.890567290049E+02    0.15826E-02   -0.29348E-02   128   0.708E-01    0.233E-01
DAV:   5    -0.890573166475E+02   -0.58764E-03   -0.87501E-03   136   0.452E-01    0.179E-01
DAV:   6    -0.890572410009E+02    0.75647E-04   -0.39589E-03   136   0.347E-01    0.822E-02
DAV:   7    -0.890572901766E+02   -0.49176E-04   -0.58870E-04    96   0.106E-01
  42 F= -.89057290E+02 E0= -.89048892E+02  d E =-.200116E+00
       N       E                     dE             d eps       ncg     rms          rms(c)
DAV:   1    -0.887867991267E+02    0.27044E+00   -0.65947E+01   112   0.683E+01    0.225E+00
DAV:   2    -0.893305374860E+02   -0.54374E+00   -0.64616E+00    96   0.124E+01    0.173E+00
DAV:   3    -0.893583025377E+02   -0.27765E-01   -0.75316E-01   136   0.450E+00    0.208E+00
DAV:   4    -0.893130310631E+02    0.45271E-01   -0.47335E-01   136   0.270E+00    0.744E-01
DAV:   5    -0.893149014897E+02   -0.18704E-02   -0.76442E-02   136   0.122E+00    0.522E-01
DAV:   6    -0.893140187756E+02    0.88271E-03   -0.35083E-02   136   0.109E+00    0.243E-01
DAV:   7    -0.893139894948E+02    0.29281E-04   -0.65094E-03   136   0.377E-01    0.101E-01
DAV:   8    -0.893143892429E+02   -0.39975E-03   -0.10194E-03   128   0.119E-01    0.397E-02
DAV:   9    -0.893147328765E+02   -0.34363E-03   -0.16705E-04    88   0.603E-02    0.208E-02
DAV:  10    -0.893150025292E+02   -0.26965E-03   -0.64813E-05    88   0.304E-02    0.926E-03
DAV:  11    -0.893152286343E+02   -0.22611E-03   -0.33973E-05    80   0.207E-02    0.613E-03
DAV:  12    -0.893154887573E+02   -0.26012E-03   -0.37279E-05    88   0.147E-02    0.411E-03
DAV:  13    -0.893156961833E+02   -0.20743E-03   -0.36523E-05    88   0.130E-02    0.212E-03
DAV:  14    -0.893157985328E+02   -0.10235E-03   -0.15947E-05    80   0.795E-03    0.128E-03
DAV:  15    -0.893158459050E+02   -0.47372E-04   -0.52078E-06    72   0.550E-03
  43 F= -.89315846E+02 E0= -.89309443E+02  d E =-.458672E+00
       N       E                     dE             d eps       ncg     rms          rms(c)
DAV:   1    -0.894111657729E+02   -0.95367E-01   -0.11324E+01   120   0.309E+01    0.923E-01
DAV:   2    -0.895118775913E+02   -0.10071E+00   -0.12256E+00    96   0.531E+00    0.926E-01
DAV:   3    -0.895071326714E+02    0.47449E-02   -0.16038E-01   144   0.237E+00    0.712E-01
DAV:   4    -0.895025467454E+02    0.45859E-02   -0.47248E-02   136   0.106E+00    0.317E-01
DAV:   5    -0.895033053415E+02   -0.75860E-03   -0.14146E-02   136   0.525E-01    0.231E-01
DAV:   6    -0.895031502257E+02    0.15512E-03   -0.66023E-03   136   0.468E-01    0.956E-02
DAV:   7    -0.895032225008E+02   -0.72275E-04   -0.11595E-03   128   0.172E-01    0.388E-02
DAV:   8    -0.895033303629E+02   -0.10786E-03   -0.13469E-04    64   0.549E-02    0.149E-02
DAV:   9    -0.895034019961E+02   -0.71633E-04   -0.41518E-05    64   0.288E-02
  44 F= -.89503402E+02 E0= -.89499406E+02  d E =-.187556E+00
       N       E                     dE             d eps       ncg     rms          rms(c)
DAV:   1    -0.888912242031E+02    0.61211E+00   -0.91461E+01   120   0.831E+01    0.261E+00
DAV:   2    -0.896946585996E+02   -0.80343E+00   -0.95338E+00    96   0.153E+01    0.141E+00
DAV:   3    -0.897281964966E+02   -0.33538E-01   -0.55675E-01   136   0.422E+00    0.156E+00
DAV:   4    -0.897083854147E+02    0.19811E-01   -0.31563E-01   128   0.270E+00    0.894E-01
DAV:   5    -0.897098820650E+02   -0.14967E-02   -0.76272E-02   128   0.135E+00    0.493E-01
DAV:   6    -0.897079077059E+02    0.19744E-02   -0.36843E-02   136   0.888E-01    0.217E-01
DAV:   7    -0.897082637082E+02   -0.35600E-03   -0.71250E-03   136   0.489E-01    0.961E-02
DAV:   8    -0.897086467775E+02   -0.38307E-03   -0.11066E-03   128   0.163E-01    0.418E-02
DAV:   9    -0.897090995706E+02   -0.45279E-03   -0.17657E-04    80   0.683E-02    0.188E-02
DAV:  10    -0.897095270986E+02   -0.42753E-03   -0.10336E-04    88   0.359E-02    0.984E-03
DAV:  11    -0.897099010282E+02   -0.37393E-03   -0.54133E-05    88   0.247E-02    0.591E-03
DAV:  12    -0.897102331285E+02   -0.33210E-03   -0.50668E-05    88   0.172E-02    0.365E-03
DAV:  13    -0.897104553185E+02   -0.22219E-03   -0.37235E-05    88   0.125E-02    0.219E-03
DAV:  14    -0.897105578205E+02   -0.10250E-03   -0.12806E-05    80   0.829E-03    0.129E-03
DAV:  15    -0.897106170996E+02   -0.59279E-04   -0.63361E-06    72   0.585E-03
  45 F= -.89710617E+02 E0= -.89707835E+02  d E =-.394771E+00
       N       E                     dE             d eps       ncg     rms          rms(c)
DAV:   1    -0.897906980152E+02   -0.80140E-01   -0.12796E+01   112   0.332E+01    0.101E+00
DAV:   2    -0.899167406961E+02   -0.12604E+00   -0.15101E+00    96   0.618E+00    0.102E+00
DAV:   3    -0.899112250897E+02    0.55156E-02   -0.18099E-01   136   0.235E+00    0.713E-01
DAV:   4    -0.899061929035E+02    0.50322E-02   -0.46432E-02   128   0.116E+00    0.318E-01
DAV:   5    -0.899078385516E+02   -0.16456E-02   -0.17401E-02   144   0.835E-01    0.292E-01
DAV:   6    -0.899069476312E+02    0.89092E-03   -0.74409E-03   136   0.523E-01    0.585E-02
DAV:   7    -0.899072076641E+02   -0.26003E-03   -0.67757E-04   120   0.114E-01    0.293E-02
DAV:   8    -0.899072586928E+02   -0.51029E-04   -0.90730E-05    72   0.443E-02
  46 F= -.89907259E+02 E0= -.89904307E+02  d E =-.196642E+00
       N       E                     dE             d eps       ncg     rms          rms(c)
DAV:   1    -0.889909884823E+02    0.91622E+00   -0.11771E+02   120   0.932E+01    0.302E+00
DAV:   2    -0.901564155256E+02   -0.11654E+01   -0.13292E+01    96   0.185E+01    0.168E+00
DAV:   3    -0.901788870942E+02   -0.22472E-01   -0.63514E-01   144   0.426E+00    0.130E+00
DAV:   4    -0.901728887785E+02    0.59983E-02   -0.23095E-01   136   0.303E+00    0.939E-01
DAV:   5    -0.901788925256E+02   -0.60037E-02   -0.12252E-01   144   0.223E+00    0.823E-01
DAV:   6    -0.901701060715E+02    0.87865E-02   -0.55853E-02   136   0.141E+00    0.205E-01
DAV:   7    -0.901708518820E+02   -0.74581E-03   -0.49410E-03   120   0.343E-01    0.785E-02
DAV:   8    -0.901713833254E+02   -0.53144E-03   -0.77236E-04   112   0.119E-01    0.431E-02
DAV:   9    -0.901717862098E+02   -0.40288E-03   -0.21802E-04    88   0.638E-02    0.185E-02
DAV:  10    -0.901721359355E+02   -0.34973E-03   -0.79816E-05    88   0.360E-02    0.953E-03
DAV:  11    -0.901725132966E+02   -0.37736E-03   -0.49054E-05    88   0.222E-02    0.622E-03
DAV:  12    -0.901729406966E+02   -0.42740E-03   -0.70235E-05    88   0.198E-02    0.364E-03
DAV:  13    -0.901731651688E+02   -0.22447E-03   -0.35365E-05    88   0.138E-02    0.229E-03
DAV:  14    -0.901732807732E+02   -0.11560E-03   -0.12372E-05    72   0.907E-03    0.128E-03
DAV:  15    -0.901733523964E+02   -0.71623E-04   -0.10763E-05    80   0.654E-03
  47 F= -.90173352E+02 E0= -.90170251E+02  d E =-.462735E+00
       N       E                     dE             d eps       ncg     rms          rms(c)
DAV:   1    -0.903363608764E+02   -0.16308E+00   -0.10987E+01   120   0.317E+01    0.868E-01
DAV:   2    -0.904390203516E+02   -0.10266E+00   -0.12237E+00    96   0.569E+00    0.836E-01
DAV:   3    -0.904347943846E+02    0.42260E-02   -0.11012E-01   152   0.213E+00    0.587E-01
DAV:   4    -0.904316100110E+02    0.31844E-02   -0.34010E-02   128   0.107E+00    0.298E-01
DAV:   5    -0.904326280127E+02   -0.10180E-02   -0.15029E-02   136   0.925E-01    0.258E-01
DAV:   6    -0.904321062310E+02    0.52178E-03   -0.58719E-03   136   0.461E-01    0.523E-02
DAV:   7    -0.904322862076E+02   -0.17998E-03   -0.55280E-04   120   0.109E-01    0.265E-02
DAV:   8    -0.904323103304E+02   -0.24123E-04   -0.53428E-05    72   0.476E-02
  48 F= -.90432310E+02 E0= -.90429315E+02  d E =-.258958E+00
       N       E                     dE             d eps       ncg     rms          rms(c)
DAV:   1    -0.898858598423E+02    0.54643E+00   -0.10011E+02   120   0.908E+01    0.268E+00
DAV:   2    -0.908707589549E+02   -0.98490E+00   -0.11458E+01    96   0.177E+01    0.148E+00
DAV:   3    -0.908833891611E+02   -0.12630E-01   -0.50246E-01   144   0.348E+00    0.107E+00
DAV:   4    -0.908824517351E+02    0.93743E-03   -0.16198E-01   136   0.214E+00    0.909E-01
DAV:   5    -0.908818173143E+02    0.63442E-03   -0.88642E-02   144   0.191E+00    0.663E-01
DAV:   6    -0.908770524205E+02    0.47649E-02   -0.46183E-02   136   0.126E+00    0.236E-01
DAV:   7    -0.908772517551E+02   -0.19933E-03   -0.58490E-03   136   0.525E-01    0.703E-02
DAV:   8    -0.908775499401E+02   -0.29818E-03   -0.79954E-04   120   0.148E-01    0.352E-02
DAV:   9    -0.908777849515E+02   -0.23501E-03   -0.11856E-04    80   0.629E-02    0.149E-02
DAV:  10    -0.908779707769E+02   -0.18583E-03   -0.51783E-05    80   0.342E-02    0.830E-03
DAV:  11    -0.908781466063E+02   -0.17583E-03   -0.21703E-05    72   0.185E-02    0.518E-03
DAV:  12    -0.908783955945E+02   -0.24899E-03   -0.32747E-05    80   0.144E-02    0.304E-03
DAV:  13    -0.908785706664E+02   -0.17507E-03   -0.22348E-05    80   0.111E-02    0.195E-03
DAV:  14    -0.908786683161E+02   -0.97650E-04   -0.10312E-05    72   0.853E-03
  49 F= -.90878668E+02 E0= -.90876678E+02  d E =-.705316E+00
       N       E                     dE             d eps       ncg     rms          rms(c)
DAV:   1    -0.910263032390E+02   -0.14773E+00   -0.25940E+01   112   0.477E+01    0.126E+00
DAV:   2    -0.912660991410E+02   -0.23980E+00   -0.28030E+00    96   0.876E+00    0.872E-01
DAV:   3    -0.912708872123E+02   -0.47881E-02   -0.18664E-01   152   0.246E+00    0.861E-01
DAV:   4    -0.912630203907E+02    0.78668E-02   -0.73354E-02   136   0.159E+00    0.472E-01
DAV:   5    -0.912639770486E+02   -0.95666E-03   -0.28084E-02   136   0.111E+00    0.343E-01
DAV:   6    -0.912625941168E+02    0.13829E-02   -0.13312E-02   136   0.755E-01    0.966E-02
DAV:   7    -0.912627981047E+02   -0.20399E-03   -0.14564E-03   128   0.194E-01    0.447E-02
DAV:   8    -0.912628737570E+02   -0.75652E-04   -0.14314E-04    72   0.608E-02
  50 F= -.91262874E+02 E0= -.91259668E+02  d E =-.384205E+00
       N       E                     dE             d eps       ncg     rms          rms(c)
DAV:   1    -0.909483735661E+02    0.31442E+00   -0.57859E+01   112   0.712E+01    0.195E+00
DAV:   2    -0.914937704395E+02   -0.54540E+00   -0.63348E+00    96   0.133E+01    0.113E+00
DAV:   3    -0.914987009504E+02   -0.49305E-02   -0.30608E-01   152   0.262E+00    0.820E-01
DAV:   4    -0.915026586188E+02   -0.39577E-02   -0.13695E-01   136   0.222E+00    0.919E-01
DAV:   5    -0.914954285150E+02    0.72301E-02   -0.75806E-02   136   0.146E+00    0.435E-01
DAV:   6    -0.914935503342E+02    0.18782E-02   -0.24854E-02   136   0.104E+00    0.176E-01
DAV:   7    -0.914937601415E+02   -0.20981E-03   -0.32021E-03   144   0.341E-01    0.547E-02
DAV:   8    -0.914939672498E+02   -0.20711E-03   -0.35409E-04   104   0.914E-02    0.260E-02
DAV:   9    -0.914941627114E+02   -0.19546E-03   -0.91083E-05    80   0.413E-02    0.117E-02
DAV:  10    -0.914942993791E+02   -0.13667E-03   -0.31381E-05    80   0.238E-02    0.724E-03
DAV:  11    -0.914944691812E+02   -0.16980E-03   -0.16698E-05    80   0.147E-02    0.417E-03
DAV:  12    -0.914947014547E+02   -0.23227E-03   -0.31152E-05    88   0.130E-02    0.261E-03
DAV:  13    -0.914948171486E+02   -0.11569E-03   -0.14546E-05    80   0.878E-03    0.162E-03
DAV:  14    -0.914948834920E+02   -0.66343E-04   -0.72368E-06    72   0.643E-03
  51 F= -.91494883E+02 E0= -.91489890E+02  d E =-.616215E+00
       N       E                     dE             d eps       ncg     rms          rms(c)
DAV:   1    -0.915369076750E+02   -0.42091E-01   -0.23913E+01   112   0.470E+01    0.128E+00
DAV:   2    -0.917913155636E+02   -0.25441E+00   -0.28673E+00    96   0.842E+00    0.723E-01
DAV:   3    -0.917934169003E+02   -0.21013E-02   -0.11853E-01   152   0.188E+00    0.503E-01
DAV:   4    -0.917929111594E+02    0.50574E-03   -0.42597E-02   136   0.110E+00    0.424E-01
DAV:   5    -0.917934568345E+02   -0.54568E-03   -0.27355E-02   136   0.933E-01    0.347E-01
DAV:   6    -0.917920431492E+02    0.14137E-02   -0.11079E-02   136   0.791E-01    0.102E-01
DAV:   7    -0.917922699726E+02   -0.22682E-03   -0.11622E-03   128   0.211E-01    0.295E-02
DAV:   8    -0.917923526937E+02   -0.82721E-04   -0.12504E-04    80   0.676E-02
  52 F= -.91792353E+02 E0= -.91788785E+02  d E =-.297469E+00
       N       E                     dE             d eps       ncg     rms          rms(c)
DAV:   1    -0.895349833508E+02    0.22573E+01   -0.23276E+02   112   0.131E+02    0.467E+00
DAV:   2    -0.925094864956E+02   -0.29745E+01   -0.31312E+01    96   0.286E+01    0.303E+00
DAV:   3    -0.925830898701E+02   -0.73603E-01   -0.26616E+00   160   0.877E+00    0.271E+00
DAV:   4    -0.924721532651E+02    0.11094E+00   -0.69263E-01   136   0.428E+00    0.115E+00
DAV:   5    -0.924783419621E+02   -0.61887E-02   -0.16897E-01   136   0.253E+00    0.891E-01
DAV:   6    -0.924686946442E+02    0.96473E-02   -0.76086E-02   136   0.150E+00    0.251E-01
DAV:   7    -0.924702488174E+02   -0.15542E-02   -0.80338E-03   136   0.410E-01    0.127E-01
DAV:   8    -0.924710107964E+02   -0.76198E-03   -0.95524E-04   128   0.168E-01    0.443E-02
DAV:   9    -0.924715133453E+02   -0.50255E-03   -0.27417E-04    88   0.639E-02    0.219E-02
DAV:  10    -0.924719213375E+02   -0.40799E-03   -0.10002E-04    88   0.360E-02    0.130E-02
DAV:  11    -0.924723474019E+02   -0.42606E-03   -0.59722E-05    88   0.289E-02    0.776E-03
DAV:  12    -0.924728201337E+02   -0.47273E-03   -0.73275E-05    88   0.218E-02    0.510E-03
DAV:  13    -0.924731467266E+02   -0.32659E-03   -0.54039E-05    88   0.164E-02    0.319E-03
DAV:  14    -0.924733077397E+02   -0.16101E-03   -0.21992E-05    80   0.114E-02    0.182E-03
DAV:  15    -0.924733792032E+02   -0.71464E-04   -0.84509E-06    72   0.774E-03
  53 F= -.92473379E+02 E0= -.92473211E+02  d E =-.978496E+00
       N       E                     dE             d eps       ncg     rms          rms(c)
DAV:   1    -0.759310682141E+02    0.16542E+02   -0.10707E+03   120   0.243E+02    0.101E+01
DAV:   2    -0.898800192098E+02   -0.13949E+02   -0.14255E+02    96   0.577E+01    0.573E+00
DAV:   3    -0.904464657843E+02   -0.56645E+00   -0.13813E+01   160   0.214E+01    0.497E+00
DAV:   4    -0.901227582467E+02    0.32371E+00   -0.28523E+00   136   0.909E+00    0.267E+00
DAV:   5    -0.900959423140E+02    0.26816E-01   -0.74803E-01   144   0.519E+00    0.179E+00
DAV:   6    -0.900723139471E+02    0.23628E-01   -0.21301E-01   144   0.273E+00    0.513E-01
DAV:   7    -0.900771251938E+02   -0.48112E-02   -0.29183E-02   136   0.771E-01    0.209E-01
DAV:   8    -0.900786229535E+02   -0.14978E-02   -0.31601E-03   136   0.303E-01    0.829E-02
DAV:   9    -0.900795762687E+02   -0.95332E-03   -0.90216E-04   128   0.117E-01    0.464E-02
DAV:  10    -0.900803227509E+02   -0.74648E-03   -0.17627E-04    88   0.665E-02    0.220E-02
DAV:  11    -0.900812514897E+02   -0.92874E-03   -0.18405E-04    88   0.478E-02    0.126E-02
DAV:  12    -0.900820166437E+02   -0.76515E-03   -0.99549E-05    88   0.300E-02    0.748E-03
DAV:  13    -0.900826477350E+02   -0.63109E-03   -0.83887E-05    80   0.224E-02    0.639E-03
DAV:  14    -0.900830108370E+02   -0.36310E-03   -0.58484E-05    80   0.180E-02    0.313E-03
DAV:  15    -0.900831563058E+02   -0.14547E-03   -0.13490E-05    72   0.911E-03    0.203E-03
DAV:  16    -0.900832603000E+02   -0.10399E-03   -0.11586E-05    72   0.779E-03    0.103E-03
DAV:  17    -0.900833234920E+02   -0.63192E-04   -0.70867E-06    72   0.506E-03
  54 F= -.90083323E+02 E0= -.90083323E+02  d E =0.141156E+01
       N       E                     dE             d eps       ncg     rms          rms(c)
DAV:   1    -0.810407098535E+02    0.90426E+01   -0.87041E+02   112   0.238E+02    0.880E+00
DAV:   2    -0.953448626607E+02   -0.14304E+02   -0.13323E+02   112   0.548E+01    0.205E+01
DAV:   3    -0.926307048107E+02    0.27142E+01   -0.40192E+01   152   0.339E+01    0.576E+00
DAV:   4    -0.925907160639E+02    0.39989E-01   -0.18856E+00   128   0.582E+00    0.419E+00
DAV:   5    -0.927064292888E+02   -0.11571E+00   -0.14526E+00   144   0.661E+00    0.467E+00
DAV:   6    -0.926335037007E+02    0.72926E-01   -0.13089E+00   136   0.614E+00    0.325E+00
DAV:   7    -0.926047084537E+02    0.28795E-01   -0.10671E-01   120   0.150E+00    0.243E+00
DAV:   8    -0.925443268503E+02    0.60382E-01   -0.14851E-01   136   0.203E+00    0.992E-01
DAV:   9    -0.925352403465E+02    0.90865E-02   -0.25903E-02   160   0.801E-01    0.497E-01
DAV:  10    -0.925337451955E+02    0.14952E-02   -0.30758E-03   136   0.344E-01    0.339E-01
DAV:  11    -0.925325940810E+02    0.11511E-02   -0.10068E-02   136   0.585E-01    0.411E-02
DAV:  12    -0.925331296113E+02   -0.53553E-03   -0.11393E-03   152   0.133E-01    0.434E-02
DAV:  13    -0.925335057854E+02   -0.37617E-03   -0.95913E-05    80   0.609E-02    0.161E-02
DAV:  14    -0.925340404252E+02   -0.53464E-03   -0.91880E-05    88   0.295E-02    0.985E-03
DAV:  15    -0.925343454503E+02   -0.30503E-03   -0.36963E-05    72   0.242E-02    0.561E-03
DAV:  16    -0.925347349263E+02   -0.38948E-03   -0.76483E-05    80   0.202E-02    0.384E-03
DAV:  17    -0.925348500086E+02   -0.11508E-03   -0.20709E-05    72   0.119E-02    0.185E-03
DAV:  18    -0.925349045892E+02   -0.54581E-04   -0.99503E-06    72   0.815E-03
  55 F= -.92534905E+02 E0= -.92534833E+02  d E =-.104002E+01
       N       E                     dE             d eps       ncg     rms          rms(c)
DAV:   1    -0.926252775201E+02   -0.90428E-01   -0.48788E+01   112   0.624E+01    0.212E+00
DAV:   2    -0.931522307744E+02   -0.52695E+00   -0.61432E+00    96   0.126E+01    0.102E+00
DAV:   3    -0.931608455874E+02   -0.86148E-02   -0.28314E-01   152   0.303E+00    0.803E-01
DAV:   4    -0.931608679652E+02   -0.22378E-04   -0.95398E-02   136   0.231E+00    0.719E-01
DAV:   5    -0.931556776233E+02    0.51903E-02   -0.31539E-02   144   0.168E+00    0.196E-01
DAV:   6    -0.931569477838E+02   -0.12702E-02   -0.85455E-03   144   0.471E-01    0.153E-01
DAV:   7    -0.931566403654E+02    0.30742E-03   -0.26799E-03   136   0.285E-01    0.473E-02
DAV:   8    -0.931567589000E+02   -0.11853E-03   -0.23319E-04    88   0.972E-02    0.216E-02
DAV:   9    -0.931568795518E+02   -0.12065E-03   -0.70235E-05    64   0.403E-02    0.956E-03
DAV:  10    -0.931569846777E+02   -0.10513E-03   -0.28394E-05    64   0.270E-02    0.483E-03
DAV:  11    -0.931570813876E+02   -0.96710E-04   -0.15762E-05    64   0.138E-02
  56 F= -.93157081E+02 E0= -.93157070E+02  d E =-.622177E+00
       N       E                     dE             d eps       ncg     rms          rms(c)
DAV:   1    -0.929606550176E+02    0.19633E+00   -0.36448E+01   120   0.542E+01    0.182E+00
DAV:   2    -0.933329049608E+02   -0.37225E+00   -0.43647E+00    96   0.104E+01    0.912E-01
DAV:   3    -0.933352336996E+02   -0.23287E-02   -0.17977E-01   152   0.235E+00    0.591E-01
DAV:   4    -0.933366146547E+02   -0.13810E-02   -0.55297E-02   136   0.158E+00    0.534E-01
DAV:   5    -0.933345087696E+02    0.21059E-02   -0.26367E-02   136   0.139E+00    0.253E-01
DAV:   6    -0.933346685229E+02   -0.15975E-03   -0.90612E-03   136   0.675E-01    0.154E-01
DAV:   7    -0.933344264020E+02    0.24212E-03   -0.23420E-03   144   0.295E-01    0.344E-02
DAV:   8    -0.933345141023E+02   -0.87700E-04   -0.21141E-04    80   0.840E-02
  57 F= -.93334514E+02 E0= -.93334512E+02  d E =-.799610E+00
       N       E                     dE             d eps       ncg     rms          rms(c)
DAV:   1    -0.936866395522E+02   -0.35221E+00   -0.29613E+01    96   0.440E+01    0.143E+00
DAV:   2    -0.938630044923E+02   -0.17636E+00   -0.25264E+00   112   0.848E+00    0.903E-01
DAV:   3    -0.938703187709E+02   -0.73143E-02   -0.21684E-01   144   0.359E+00    0.801E-01
DAV:   4    -0.938627374226E+02    0.75813E-02   -0.57106E-02   136   0.200E+00    0.417E-01
DAV:   5    -0.938633801117E+02   -0.64269E-03   -0.19867E-02   144   0.112E+00    0.271E-01
DAV:   6    -0.938628586907E+02    0.52142E-03   -0.10523E-02   136   0.619E-01    0.107E-01
DAV:   7    -0.938629865341E+02   -0.12784E-03   -0.14862E-03   136   0.194E-01    0.438E-02
DAV:   8    -0.938630727546E+02   -0.86221E-04   -0.10910E-04    72   0.672E-02
  58 F= -.93863073E+02 E0= -.93863072E+02  d E =-.528559E+00
       N       E                     dE             d eps       ncg     rms          rms(c)
DAV:   1    -0.938983547065E+02   -0.35368E-01   -0.17344E+01   104   0.336E+01    0.111E+00
DAV:   2    -0.939943555528E+02   -0.96001E-01   -0.14447E+00   112   0.643E+00    0.717E-01
DAV:   3    -0.939976417017E+02   -0.32861E-02   -0.12516E-01   160   0.282E+00    0.627E-01
DAV:   4    -0.939929755824E+02    0.46661E-02   -0.34003E-02   136   0.154E+00    0.322E-01
DAV:   5    -0.939935039993E+02   -0.52842E-03   -0.12427E-02   144   0.921E-01    0.220E-01
DAV:   6    -0.939931781743E+02    0.32583E-03   -0.67834E-03   136   0.506E-01    0.868E-02
DAV:   7    -0.939932770554E+02   -0.98881E-04   -0.96777E-04   128   0.157E-01
  59 F= -.93993277E+02 E0= -.93993276E+02  d E =-.658763E+00
       N       E                     dE             d eps       ncg     rms          rms(c)
DAV:   1    -0.945494812579E+02   -0.55630E+00   -0.37423E+01    96   0.404E+01    0.150E+00
DAV:   2    -0.946580501426E+02   -0.10857E+00   -0.20156E+00   112   0.746E+00    0.927E-01
DAV:   3    -0.946595386746E+02   -0.14885E-02   -0.19227E-01   152   0.243E+00    0.694E-01
DAV:   4    -0.946562127235E+02    0.33260E-02   -0.71560E-02   136   0.226E+00    0.525E-01
DAV:   5    -0.946543064852E+02    0.19062E-02   -0.31366E-02   144   0.133E+00    0.281E-01
DAV:   6    -0.946536641891E+02    0.64230E-03   -0.96868E-03   144   0.828E-01    0.133E-01
DAV:   7    -0.946535876949E+02    0.76494E-04   -0.17529E-03   128   0.244E-01    0.404E-02
DAV:   8    -0.946536926795E+02   -0.10498E-03   -0.18667E-04    80   0.829E-02    0.189E-02
DAV:   9    -0.946537968661E+02   -0.10419E-03   -0.56611E-05    72   0.429E-02    0.777E-03
DAV:  10    -0.946538722929E+02   -0.75427E-04   -0.17037E-05    72   0.215E-02
  60 F= -.94653872E+02 E0= -.94653872E+02  d E =-.660595E+00
       N       E                     dE             d eps       ncg     rms          rms(c)
DAV:   1    -0.948063174944E+02   -0.15252E+00   -0.70207E+01    96   0.551E+01    0.216E+00
DAV:   2    -0.949860933110E+02   -0.17978E+00   -0.37817E+00   112   0.103E+01    0.123E+00
DAV:   3    -0.949901268057E+02   -0.40335E-02   -0.38556E-01   144   0.350E+00    0.103E+00
DAV:   4    -0.949830306323E+02    0.70962E-02   -0.14744E-01   136   0.330E+00    0.763E-01
DAV:   5    -0.949755610664E+02    0.74696E-02   -0.49621E-02   128   0.168E+00    0.200E-01
DAV:   6    -0.949760527497E+02   -0.49168E-03   -0.66970E-03   120   0.468E-01    0.748E-02
DAV:   7    -0.949762146027E+02   -0.16185E-03   -0.13794E-03   136   0.193E-01    0.539E-02
DAV:   8    -0.949762726248E+02   -0.58022E-04   -0.41586E-04    96   0.113E-01
  61 F= -.94976273E+02 E0= -.94976272E+02  d E =-.982996E+00
       N       E                     dE             d eps       ncg     rms          rms(c)
DAV:   1    -0.954253105791E+02   -0.44910E+00   -0.52480E+01    96   0.414E+01    0.223E+00
DAV:   2    -0.954640249709E+02   -0.38714E-01   -0.22217E+00   128   0.102E+01    0.224E+00
DAV:   3    -0.954176138145E+02    0.46411E-01   -0.70023E-01   136   0.532E+00    0.125E+00
DAV:   4    -0.953930083003E+02    0.24606E-01   -0.17824E-01   136   0.308E+00    0.573E-01
DAV:   5    -0.953921811080E+02    0.82719E-03   -0.78140E-02   128   0.159E+00    0.442E-01
DAV:   6    -0.953894402940E+02    0.27408E-02   -0.21495E-02   136   0.767E-01    0.165E-01
DAV:   7    -0.953896238085E+02   -0.18351E-03   -0.18786E-03   120   0.262E-01    0.592E-02
[...]
DAV:   7    -0.961561992532E+02   -0.17158E-03   -0.59215E-04   120   0.127E-01    0.236E-02
DAV:   8    -0.961562773937E+02   -0.78140E-04   -0.46795E-05    72   0.369E-02
  68 F= -.96156277E+02 E0= -.96156277E+02  d E =-.172023E+00
       N       E                     dE             d eps       ncg     rms          rms(c)
DAV:   1    -0.960834237302E+02    0.72776E-01   -0.15386E+01   112   0.346E+01    0.103E+00
DAV:   2    -0.962182400134E+02   -0.13482E+00   -0.16229E+00   112   0.714E+00    0.949E-01
DAV:   3    -0.962156261482E+02    0.26139E-02   -0.16049E-01   152   0.289E+00    0.574E-01
DAV:   4    -0.962106228698E+02    0.50033E-02   -0.34395E-02   136   0.139E+00    0.294E-01
DAV:   5    -0.962110469327E+02   -0.42406E-03   -0.11742E-02   128   0.665E-01    0.180E-01
DAV:   6    -0.962108812594E+02    0.16567E-03   -0.41773E-03   136   0.375E-01    0.773E-02
DAV:   7    -0.962110215773E+02   -0.14032E-03   -0.50429E-04    96   0.127E-01    0.228E-02
DAV:   8    -0.962111271588E+02   -0.10558E-03   -0.72011E-05    72   0.460E-02    0.949E-03
DAV:   9    -0.962112149930E+02   -0.87834E-04   -0.23663E-05    72   0.240E-02
  69 F= -.96211215E+02 E0= -.96211215E+02  d E =-.226961E+00
       N       E                     dE             d eps       ncg     rms          rms(c)
DAV:   1    -0.962712691679E+02   -0.60142E-01   -0.16163E+01   112   0.330E+01    0.106E+00
DAV:   2    -0.963632490631E+02   -0.91980E-01   -0.12693E+00    96   0.621E+00    0.731E-01
DAV:   3    -0.963669144526E+02   -0.36654E-02   -0.13119E-01   152   0.249E+00    0.646E-01
DAV:   4    -0.963611799192E+02    0.57345E-02   -0.46761E-02   136   0.168E+00    0.312E-01
DAV:   5    -0.963610887238E+02    0.91195E-04   -0.11115E-02   136   0.682E-01    0.144E-01
DAV:   6    -0.963610821214E+02    0.66024E-05   -0.30511E-03   136   0.315E-01    0.795E-02
DAV:   7    -0.963611329768E+02   -0.50855E-04   -0.69799E-04   104   0.149E-01
  70 F= -.96361133E+02 E0= -.96361133E+02  d E =-.149918E+00
       N       E                     dE             d eps       ncg     rms          rms(c)
DAV:   1    -0.963584632097E+02    0.26189E-02   -0.41261E+00   104   0.167E+01    0.535E-01
DAV:   2    -0.963821558496E+02   -0.23693E-01   -0.32549E-01    96   0.311E+00    0.372E-01
DAV:   3    -0.963830857185E+02   -0.92987E-03   -0.32482E-02   152   0.122E+00    0.323E-01
DAV:   4    -0.963817681873E+02    0.13175E-02   -0.11660E-02   136   0.817E-01    0.157E-01
DAV:   5    -0.963818960026E+02   -0.12782E-03   -0.28639E-03   136   0.360E-01    0.763E-02
DAV:   6    -0.963819128768E+02   -0.16874E-04   -0.77039E-04   112   0.162E-01
  71 F= -.96381913E+02 E0= -.96381913E+02  d E =-.170698E+00
       N       E                     dE             d eps       ncg     rms          rms(c)
DAV:   1    -0.964625174453E+02   -0.80621E-01   -0.11650E+01   104   0.282E+01    0.965E-01
DAV:   2    -0.965273240121E+02   -0.64807E-01   -0.98779E-01   112   0.508E+00    0.453E-01
DAV:   3    -0.965295811028E+02   -0.22571E-02   -0.62710E-02   144   0.128E+00    0.287E-01
DAV:   4    -0.965306141009E+02   -0.10330E-02   -0.16538E-02   136   0.945E-01    0.325E-01
DAV:   5    -0.965295852616E+02    0.10288E-02   -0.89297E-03   136   0.634E-01    0.102E-01
DAV:   6    -0.965298820821E+02   -0.29682E-03   -0.10832E-03   120   0.190E-01    0.278E-02
DAV:   7    -0.965299523666E+02   -0.70285E-04   -0.15725E-04    72   0.723E-02
  72 F= -.96529952E+02 E0= -.96529952E+02  d E =-.148039E+00
       N       E                     dE             d eps       ncg     rms          rms(c)
DAV:   1    -0.965080118129E+02    0.21870E-01   -0.13947E+01   104   0.308E+01    0.104E+00
DAV:   2    -0.965885668718E+02   -0.80555E-01   -0.11731E+00   112   0.560E+00    0.518E-01
DAV:   3    -0.965915830033E+02   -0.30161E-02   -0.80055E-02   144   0.158E+00    0.400E-01
DAV:   4    -0.965913069482E+02    0.27606E-03   -0.25051E-02   136   0.123E+00    0.329E-01
DAV:   5    -0.965905151765E+02    0.79177E-03   -0.91518E-03   136   0.632E-01    0.111E-01
DAV:   6    -0.965908772064E+02   -0.36203E-03   -0.16472E-03   136   0.233E-01    0.592E-02
DAV:   7    -0.965908837434E+02   -0.65369E-05   -0.49575E-04   112   0.132E-01
  73 F= -.96590884E+02 E0= -.96590884E+02  d E =-.208971E+00
       N       E                     dE             d eps       ncg     rms          rms(c)
DAV:   1    -0.966046880094E+02   -0.13811E-01   -0.13672E+01   112   0.326E+01    0.907E-01
DAV:   2    -0.967151064271E+02   -0.11042E+00   -0.12808E+00   112   0.599E+00    0.511E-01
DAV:   3    -0.967157384381E+02   -0.63201E-03   -0.58451E-02   144   0.133E+00    0.322E-01
DAV:   4    -0.967174024286E+02   -0.16640E-02   -0.19709E-02   136   0.105E+00    0.381E-01
DAV:   5    -0.967154832713E+02    0.19192E-02   -0.11189E-02   136   0.737E-01    0.623E-02
DAV:   6    -0.967157028521E+02   -0.21958E-03   -0.82194E-04   120   0.148E-01    0.275E-02
DAV:   7    -0.967157638469E+02   -0.60995E-04   -0.74721E-05    72   0.521E-02
  74 F= -.96715764E+02 E0= -.96715764E+02  d E =-.124880E+00
       N       E                     dE             d eps       ncg     rms          rms(c)
DAV:   1    -0.967018898429E+02    0.13813E-01   -0.38468E+00   112   0.173E+01    0.483E-01
DAV:   2    -0.967333161307E+02   -0.31426E-01   -0.36577E-01   112   0.319E+00    0.267E-01
DAV:   3    -0.967335611308E+02   -0.24500E-03   -0.16431E-02   144   0.681E-01    0.157E-01
DAV:   4    -0.967340985502E+02   -0.53742E-03   -0.40542E-03   136   0.461E-01    0.173E-01
DAV:   5    -0.967337389490E+02    0.35960E-03   -0.26053E-03   136   0.407E-01    0.398E-02
DAV:   6    -0.967338051051E+02   -0.66156E-04   -0.22526E-04    80   0.963E-02
  75 F= -.96733805E+02 E0= -.96733805E+02  d E =-.142921E+00
       N       E                     dE             d eps       ncg     rms          rms(c)
DAV:   1    -0.967562465259E+02   -0.22508E-01   -0.92980E+00   104   0.242E+01    0.822E-01
DAV:   2    -0.968088294126E+02   -0.52583E-01   -0.73591E-01    96   0.457E+00    0.500E-01
DAV:   3    -0.968094625580E+02   -0.63315E-03   -0.58854E-02   152   0.146E+00    0.433E-01
DAV:   4    -0.968076542885E+02    0.18083E-02   -0.22648E-02   136   0.125E+00    0.248E-01
DAV:   5    -0.968074421448E+02    0.21214E-03   -0.54358E-03   144   0.498E-01    0.942E-02
DAV:   6    -0.968075914660E+02   -0.14932E-03   -0.17432E-03   136   0.239E-01    0.727E-02
DAV:   7    -0.968075770535E+02    0.14413E-04   -0.44600E-04   104   0.121E-01
  76 F= -.96807577E+02 E0= -.96807577E+02  d E =-.737719E-01
       N       E                     dE             d eps       ncg     rms          rms(c)
DAV:   1    -0.968076456811E+02   -0.54215E-04   -0.42133E-01   104   0.516E+00    0.173E-01
DAV:   2    -0.968100676135E+02   -0.24219E-02   -0.33384E-02    96   0.968E-01    0.104E-01
DAV:   3    -0.968101187218E+02   -0.51108E-04   -0.24550E-03   152   0.292E-01    0.837E-02
DAV:   4    -0.968101131701E+02    0.55517E-05   -0.90268E-04   112   0.215E-01
  77 F= -.96810113E+02 E0= -.96810113E+02  d E =-.763081E-01
       N       E                     dE             d eps       ncg     rms          rms(c)
DAV:   1    -0.968079551394E+02    0.21636E-02   -0.95834E+00   112   0.252E+01    0.753E-01
DAV:   2    -0.968637705156E+02   -0.55815E-01   -0.72830E-01    96   0.461E+00    0.498E-01
DAV:   3    -0.968639914441E+02   -0.22093E-03   -0.51662E-02   152   0.138E+00    0.409E-01
DAV:   4    -0.968624214342E+02    0.15700E-02   -0.18944E-02   136   0.104E+00    0.239E-01
DAV:   5    -0.968622614594E+02    0.15997E-03   -0.54060E-03   136   0.484E-01    0.842E-02
DAV:   6    -0.968623424225E+02   -0.80963E-04   -0.14674E-03   136   0.219E-01    0.617E-02
DAV:   7    -0.968623387248E+02    0.36977E-05   -0.31453E-04    96   0.101E-01
  78 F= -.96862339E+02 E0= -.96862339E+02  d E =-.522256E-01
       N       E                     dE             d eps       ncg     rms          rms(c)
DAV:   1    -0.968624024359E+02   -0.60013E-04   -0.33755E-04    80   0.142E-01    0.963E-03
DAV:   2    -0.968624436795E+02   -0.41244E-04   -0.30715E-05    48   0.344E-02
  79 F= -.96862444E+02 E0= -.96862444E+02  d E =-.523305E-01
       N       E                     dE             d eps       ncg     rms          rms(c)
DAV:   1    -0.968652117955E+02   -0.28094E-02   -0.53310E+00   112   0.198E+01    0.647E-01
DAV:   2    -0.969021168791E+02   -0.36905E-01   -0.51896E-01   120   0.379E+00    0.530E-01
DAV:   3    -0.968998826000E+02    0.22343E-02   -0.43312E-02   144   0.129E+00    0.287E-01
DAV:   4    -0.968990296559E+02    0.85294E-03   -0.86454E-03   128   0.602E-01    0.176E-01
DAV:   5    -0.968993319548E+02   -0.30230E-03   -0.55004E-03   136   0.564E-01    0.161E-01
DAV:   6    -0.968990244792E+02    0.30748E-03   -0.23904E-03   136   0.317E-01    0.353E-02
DAV:   7    -0.968990896140E+02   -0.65135E-04   -0.16282E-04    72   0.691E-02
  80 F= -.96899090E+02 E0= -.96899090E+02  d E =-.366459E-01
       N       E                     dE             d eps       ncg     rms          rms(c)
DAV:   1    -0.968983375732E+02    0.68691E-03   -0.35708E-01   104   0.514E+00    0.167E-01
DAV:   2    -0.969009165332E+02   -0.25790E-02   -0.35487E-02   120   0.996E-01    0.138E-01
DAV:   3    -0.969007759244E+02    0.14061E-03   -0.29057E-03   144   0.338E-01    0.750E-02
DAV:   4    -0.969007624066E+02    0.13518E-04   -0.57105E-04   104   0.161E-01
  81 F= -.96900762E+02 E0= -.96900762E+02  d E =-.383187E-01
       N       E                     dE             d eps       ncg     rms          rms(c)
DAV:   1    -0.968880143425E+02    0.12762E-01   -0.44714E+00   104   0.186E+01    0.566E-01
DAV:   2    -0.969248102603E+02   -0.36796E-01   -0.46121E-01   112   0.350E+00    0.354E-01
DAV:   3    -0.969251620577E+02   -0.35180E-03   -0.30054E-02   144   0.100E+00    0.253E-01
DAV:   4    -0.969248352811E+02    0.32678E-03   -0.82550E-03   136   0.603E-01    0.180E-01
DAV:   5    -0.969248183156E+02    0.16966E-04   -0.35316E-03   136   0.405E-01    0.102E-01
DAV:   6    -0.969247819044E+02    0.36411E-04   -0.14460E-03   136   0.229E-01    0.420E-02
DAV:   7    -0.969248126219E+02   -0.30717E-04   -0.13350E-04    72   0.738E-02
  82 F= -.96924813E+02 E0= -.96924813E+02  d E =-.240502E-01
       N       E                     dE             d eps       ncg     rms          rms(c)
DAV:   1    -0.969248337920E+02   -0.51888E-04   -0.70989E-03   104   0.745E-01    0.226E-02
DAV:   2    -0.969249185923E+02   -0.84800E-04   -0.74669E-04   112   0.140E-01
  83 F= -.96924919E+02 E0= -.96924919E+02  d E =-.241562E-01
       N       E                     dE             d eps       ncg     rms          rms(c)
DAV:   1    -0.969284134673E+02   -0.35797E-02   -0.12707E+00   112   0.104E+01    0.306E-01
DAV:   2    -0.969399279385E+02   -0.11514E-01   -0.14014E-01   104   0.197E+00    0.212E-01
DAV:   3    -0.969398429649E+02    0.84974E-04   -0.80891E-03   144   0.573E-01    0.154E-01
DAV:   4    -0.969397060322E+02    0.13693E-03   -0.25155E-03   136   0.368E-01    0.913E-02
DAV:   5    -0.969398279569E+02   -0.12192E-03   -0.11069E-03   128   0.223E-01    0.687E-02
DAV:   6    -0.969397892572E+02    0.38700E-04   -0.42421E-04   104   0.131E-01
  84 F= -.96939789E+02 E0= -.96939789E+02  d E =-.148707E-01
       N       E                     dE             d eps       ncg     rms          rms(c)
DAV:   1    -0.969329196159E+02    0.69083E-02   -0.13026E+00   112   0.105E+01    0.309E-01
DAV:   2    -0.969447563391E+02   -0.11837E-01   -0.14385E-01   104   0.200E+00    0.222E-01
DAV:   3    -0.969446202325E+02    0.13611E-03   -0.87080E-03   144   0.613E-01    0.158E-01
DAV:   4    -0.969444653514E+02    0.15488E-03   -0.26188E-03   136   0.359E-01    0.917E-02
DAV:   5    -0.969445939834E+02   -0.12863E-03   -0.11433E-03   128   0.225E-01    0.708E-02
DAV:   6    -0.969445511174E+02    0.42866E-04   -0.44652E-04   104   0.130E-01
  85 F= -.96944551E+02 E0= -.96944551E+02  d E =-.196325E-01
       N       E                     dE             d eps       ncg     rms          rms(c)
DAV:   1    -0.969427893974E+02    0.18046E-02   -0.11576E+00   112   0.934E+00    0.274E-01
DAV:   2    -0.969510758765E+02   -0.82865E-02   -0.10472E-01   112   0.173E+00    0.163E-01
DAV:   3    -0.969510191015E+02    0.56775E-04   -0.54670E-03   144   0.388E-01    0.101E-01
DAV:   4    -0.969511301868E+02   -0.11109E-03   -0.17015E-03   136   0.242E-01    0.907E-02
DAV:   5    -0.969510733286E+02    0.56858E-04   -0.79675E-04   120   0.176E-01
  86 F= -.96951073E+02 E0= -.96951073E+02  d E =-.652221E-02
       N       E                     dE             d eps       ncg     rms          rms(c)
DAV:   1    -0.969511069475E+02    0.23239E-04   -0.40219E-03   112   0.540E-01    0.279E-02
DAV:   2    -0.969511748093E+02   -0.67862E-04   -0.58544E-04   112   0.155E-01
  87 F= -.96951175E+02 E0= -.96951175E+02  d E =-.662369E-02
       N       E                     dE             d eps       ncg     rms          rms(c)
DAV:   1    -0.969522339125E+02   -0.11270E-02   -0.60517E-01   112   0.635E+00    0.194E-01
DAV:   2    -0.969559920925E+02   -0.37582E-02   -0.49907E-02    96   0.118E+00    0.114E-01
DAV:   3    -0.969560041163E+02   -0.12024E-04   -0.30171E-03   144   0.305E-01    0.791E-02
DAV:   4    -0.969560339203E+02   -0.29804E-04   -0.10122E-03   128   0.204E-01    0.666E-02
DAV:   5    -0.969560115334E+02    0.22387E-04   -0.40368E-04   104   0.137E-01
  88 F= -.96956012E+02 E0= -.96956012E+02  d E =-.483672E-02
       N       E                     dE             d eps       ncg     rms          rms(c)
DAV:   1    -0.969559662957E+02    0.67625E-04   -0.37412E-02   112   0.158E+00    0.550E-02
DAV:   2    -0.969561987826E+02   -0.23249E-03   -0.32019E-03   104   0.300E-01    0.376E-02
DAV:   3    -0.969561930790E+02    0.57035E-05   -0.20653E-04    96   0.930E-02
  89 F= -.96956193E+02 E0= -.96956193E+02  d E =-.501827E-02
       N       E                     dE             d eps       ncg     rms          rms(c)
DAV:   1    -0.969577106754E+02   -0.15119E-02   -0.23378E-01   104   0.356E+00    0.129E-01
DAV:   2    -0.969586326232E+02   -0.92195E-03   -0.14267E-02   120   0.653E-01    0.889E-02
DAV:   3    -0.969586372375E+02   -0.46143E-05   -0.14405E-03   128   0.251E-01    0.829E-02
DAV:   4    -0.969585581811E+02    0.79056E-04   -0.60867E-04   104   0.170E-01
  90 F= -.96958558E+02 E0= -.96958558E+02  d E =-.236510E-02
       N       E                     dE             d eps       ncg     rms          rms(c)
DAV:   1    -0.969585816417E+02    0.55596E-04   -0.35849E-03   104   0.448E-01    0.214E-02
DAV:   2    -0.969586018223E+02   -0.20181E-04   -0.23341E-04    88   0.905E-02
  91 F= -.96958602E+02 E0= -.96958602E+02  d E =-.240874E-02
       N       E                     dE             d eps       ncg     rms          rms(c)
DAV:   1    -0.969594312640E+02   -0.84962E-03   -0.16775E-01   112   0.342E+00    0.103E-01
DAV:   2    -0.969605909925E+02   -0.11597E-02   -0.14660E-02   112   0.650E-01    0.658E-02
DAV:   3    -0.969605916577E+02   -0.66518E-06   -0.82206E-04   120   0.164E-01
  92 F= -.96960592E+02 E0= -.96960592E+02  d E =-.198984E-02
       N       E                     dE             d eps       ncg     rms          rms(c)
DAV:   1    -0.969604442536E+02    0.14674E-03   -0.60203E-02   112   0.205E+00    0.760E-02
DAV:   2    -0.969608546326E+02   -0.41038E-03   -0.54118E-03   112   0.413E-01    0.623E-02
DAV:   3    -0.969608376786E+02    0.16954E-04   -0.52604E-04   120   0.160E-01
  93 F= -.96960838E+02 E0= -.96960838E+02  d E =-.223586E-02
       N       E                     dE             d eps       ncg     rms          rms(c)
DAV:   1    -0.969614460470E+02   -0.59141E-03   -0.92734E-02   112   0.254E+00    0.848E-02
DAV:   2    -0.969621191252E+02   -0.67308E-03   -0.84279E-03   112   0.475E-01    0.707E-02
DAV:   3    -0.969621051597E+02    0.13965E-04   -0.71445E-04   120   0.175E-01
  94 F= -.96962105E+02 E0= -.96962105E+02  d E =-.126748E-02
       N       E                     dE             d eps       ncg     rms          rms(c)
DAV:   1    -0.969615097894E+02    0.60934E-03   -0.14653E-01   112   0.319E+00    0.114E-01
DAV:   2    -0.969625319794E+02   -0.10222E-02   -0.13243E-02   112   0.598E-01    0.921E-02
DAV:   3    -0.969625082600E+02    0.23719E-04   -0.11708E-03   128   0.222E-01    0.629E-02
DAV:   4    -0.969625022185E+02    0.60415E-05   -0.39620E-04    96   0.131E-01
  95 F= -.96962502E+02 E0= -.96962502E+02  d E =-.166454E-02
       N       E                     dE             d eps       ncg     rms          rms(c)
DAV:   1    -0.969632331916E+02   -0.72493E-03   -0.99729E-02    96   0.217E+00    0.833E-02
DAV:   2    -0.969636879345E+02   -0.45474E-03   -0.64230E-03   128   0.411E-01    0.761E-02
DAV:   3    -0.969636309242E+02    0.57010E-04   -0.72795E-04   120   0.177E-01
  96 F= -.96963631E+02 E0= -.96963631E+02  d E =-.112871E-02
       N       E                     dE             d eps       ncg     rms          rms(c)
DAV:   1    -0.969630940243E+02    0.59391E-03   -0.20700E-01    96   0.314E+00    0.118E-01
DAV:   2    -0.969639441882E+02   -0.85016E-03   -0.12365E-02   120   0.543E-01    0.778E-02
DAV:   3    -0.969639479484E+02   -0.37602E-05   -0.95228E-04   128   0.168E-01
  97 F= -.96963948E+02 E0= -.96963948E+02  d E =-.144573E-02
       N       E                     dE             d eps       ncg     rms          rms(c)
DAV:   1    -0.969645065548E+02   -0.56237E-03   -0.80842E-02    96   0.192E+00    0.783E-02
DAV:   2    -0.969647791719E+02   -0.27262E-03   -0.39400E-03   120   0.324E-01    0.518E-02
DAV:   3    -0.969647929276E+02   -0.13756E-04   -0.32736E-04   104   0.101E-01
  98 F= -.96964793E+02 E0= -.96964793E+02  d E =-.844979E-03
       N       E                     dE             d eps       ncg     rms          rms(c)
DAV:   1    -0.969647946054E+02   -0.15433E-04   -0.62128E-02    96   0.169E+00    0.664E-02
DAV:   2    -0.969650157771E+02   -0.22117E-03   -0.30785E-03   120   0.287E-01    0.458E-02
DAV:   3    -0.969650249921E+02   -0.92150E-05   -0.25729E-04    96   0.957E-02
  99 F= -.96965025E+02 E0= -.96965025E+02  d E =-.107704E-02
       N       E                     dE             d eps       ncg     rms          rms(c)
DAV:   1    -0.969657060722E+02   -0.69030E-03   -0.35571E-02    96   0.115E+00    0.528E-02
DAV:   2    -0.969657724889E+02   -0.66417E-04   -0.15080E-03   128   0.200E-01    0.346E-02
DAV:   3    -0.969657708604E+02    0.16284E-05   -0.14302E-04    72   0.782E-02
 100 F= -.96965771E+02 E0= -.96965771E+02  d E =-.745868E-03
       N       E                     dE             d eps       ncg     rms          rms(c)
DAV:   1    -0.969659527638E+02   -0.18027E-03   -0.42752E-02    96   0.127E+00    0.582E-02
DAV:   2    -0.969660520107E+02   -0.99247E-04   -0.19638E-03   128   0.237E-01    0.513E-02
DAV:   3    -0.969660284463E+02    0.23564E-04   -0.30677E-04    96   0.123E-01
 101 F= -.96966028E+02 E0= -.96966028E+02  d E =-.100345E-02
       N       E                     dE             d eps       ncg     rms          rms(c)
DAV:   1    -0.969666302511E+02   -0.57824E-03   -0.34418E-02    96   0.109E+00    0.499E-02
DAV:   2    -0.969666877947E+02   -0.57544E-04   -0.13315E-03   136   0.187E-01    0.417E-02
DAV:   3    -0.969666698123E+02    0.17982E-04   -0.19192E-04    88   0.812E-02
 102 F= -.96966670E+02 E0= -.96966670E+02  d E =-.641366E-03
       N       E                     dE             d eps       ncg     rms          rms(c)
DAV:   1    -0.969668667353E+02   -0.17894E-03   -0.95010E-02    96   0.180E+00    0.780E-02
DAV:   2    -0.969669999575E+02   -0.13322E-03   -0.33230E-03   120   0.298E-01    0.592E-02
DAV:   3    -0.969669701652E+02    0.29792E-04   -0.41956E-04    88   0.121E-01
 103 F= -.96966970E+02 E0= -.96966970E+02  d E =-.941719E-03
