 vasp.6.4.1 05Apr23 (build May 06 2024 18:04:33) complex                        
  
 executed on             LinuxIFC date 2024.07.12  06:45:01
 running   32 mpi-ranks, on    1 nodes
 distrk:  each k-point on   32 cores,    1 groups
 distr:  one band on NCORE=   8 cores,    4 groups


--------------------------------------------------------------------------------------------------------


 INCAR:
   SIGMA = 0.100000
   GGA = PE
   PREC = Normal
   IBRION = 2
   ISMEAR = 0
   LORBIT = 10
   NSW = 500
   NCORE = 8
   LASPH = .TRUE.
   LCHARG = .FALSE.
   LWAVE = .FALSE.
   LREAL = Auto

 POTCAR:    PAW_PBE Ti_sv 26Sep2005               
 POTCAR:    PAW_PBE Al 04Jan2001                  
 POTCAR:    PAW_PBE B 06Sep2000                   
 POTCAR:    PAW_PBE Ti_sv 26Sep2005               
   SHA256 =  4d747badb5a5ea28d858fbac70885b3f8929d6fd9e5b0dbe1ecb9878dc164da1 Ti_sv/POTCAR          
   COPYR  = (c) Copyright 26Sep2005 Georg Kresse                                                    
   COPYR  = This file is part of the software VASP. Any use, copying, and all other rights are regul
   COPYR  = If you do not have a valid VASP license, you may not use, copy or distribute this file. 
   VRHFIN =Ti: 3p4s3d                                                                               
   LEXCH  = PE                                                                                      
   EATOM  =  1588.0892 eV,  116.7213 Ry                                                             
                                                                                                    
   TITEL  = PAW_PBE Ti_sv 26Sep2005                                                                 
   LULTRA =        F    use ultrasoft PP ?                                                          
   IUNSCR =        1    unscreen: 0-lin 1-nonlin 2-no                                               
   RPACOR =    2.000    partial core radius                                                         
   POMASS =   47.880; ZVAL   =   12.000    mass and valenz                                          
   RCORE  =    2.300    outmost cutoff radius                                                       
   RWIGS  =    2.300; RWIGS  =    1.217    wigner-seitz radius (au A)                               
   ENMAX  =  274.610; ENMIN  =  205.957 eV                                                          
   ICORE  =        3    local potential                                                             
   LCOR   =        T    correct aug charges                                                         
   LPAW   =        T    paw PP                                                                      
   EAUG   =  482.848                                                                                
   RMAX   =    2.348    core radius for proj-oper                                                   
   RAUG   =    1.300    factor for augmentation sphere                                              
   RDEP   =    2.381    radius for radial grids                                                     
   RDEPT  =    1.930    core radius for aug-charge                                                  
                                                                                                    
   Atomic configuration                                                                             
    8 entries                                                                                       
     n  l   j            E        occ.                                                              
     1  0  0.50     -4865.3608   2.0000                                                             
     2  0  0.50      -533.1368   2.0000                                                             
     2  1  1.50      -440.5031   6.0000                                                             
     3  0  0.50       -59.3186   2.0000                                                             
     4  0  0.50        -3.7291   1.0000                                                             
     3  1  1.50       -35.7012   6.0000                                                             
     3  2  2.50        -1.9157   3.0000                                                             
     4  3  2.50        -1.3606   0.0000                                                             
   Description                                                                                      
     l       E           TYP  RCUT    TYP  RCUT                                                     
     0    -59.3185931     23  1.800                                                                 
     0     -3.7290822     23  2.300                                                                 
     1    -35.7012045     23  2.300                                                                 
     1     -1.3605826     23  2.300                                                                 
     2     -1.9156920     23  2.300                                                                 
     2     -0.0236318     23  2.300                                                                 
     3     -1.3605826     23  2.300                                                                 
  local pseudopotential read in
  partial core-charges read in
  partial kinetic energy density read in
  atomic valenz-charges read in
  non local Contribution for L=           0  read in
    real space projection operators read in
  non local Contribution for L=           0  read in
    real space projection operators read in
  non local Contribution for L=           1  read in
    real space projection operators read in
  non local Contribution for L=           1  read in
    real space projection operators read in
  non local Contribution for L=           2  read in
    real space projection operators read in
  non local Contribution for L=           2  read in
    real space projection operators read in
    PAW grid and wavefunctions read in
 
   number of l-projection  operators is LMAX  =           6
   number of lm-projection operators is LMMAX =          18
 
 POTCAR:    PAW_PBE Al 04Jan2001                  
   SHA256 =  17880443556af62b473fe41b62a467bd001ad55d2cabe504a3f22e34d4e9db96 Al/POTCAR             
   COPYR  = (c) Copyright 04Jan2001 Georg Kresse                                                    
   COPYR  = This file is part of the software VASP. Any use, copying, and all other rights are regul
   COPYR  = If you do not have a valid VASP license, you may not use, copy or distribute this file. 
   VRHFIN =Al: s2p1                                                                                 
   LEXCH  = PE                                                                                      
   EATOM  =    53.5387 eV,    3.9350 Ry                                                             
                                                                                                    
   TITEL  = PAW_PBE Al 04Jan2001                                                                    
   LULTRA =        F    use ultrasoft PP ?                                                          
   IUNSCR =        1    unscreen: 0-lin 1-nonlin 2-no                                               
   RPACOR =    1.500    partial core radius                                                         
   POMASS =   26.981; ZVAL   =    3.000    mass and valenz                                          
   RCORE  =    1.900    outmost cutoff radius                                                       
   RWIGS  =    2.650; RWIGS  =    1.402    wigner-seitz radius (au A)                               
   ENMAX  =  240.300; ENMIN  =  180.225 eV                                                          
   ICORE  =        2    local potential                                                             
   LCOR   =        T    correct aug charges                                                         
   LPAW   =        T    paw PP                                                                      
   EAUG   =  291.052                                                                                
   DEXC   =    0.000                                                                                
   RMAX   =    1.939    core radius for proj-oper                                                   
   RAUG   =    1.300    factor for augmentation sphere                                              
   RDEP   =    1.966    radius for radial grids                                                     
   RDEPT  =    1.856    core radius for aug-charge                                                  
                                                                                                    
   Atomic configuration                                                                             
    6 entries                                                                                       
     n  l   j            E        occ.                                                              
     1  0  0.50     -1511.1048   2.0000                                                             
     2  0  0.50      -108.1629   2.0000                                                             
     2  1  1.50       -69.6402   6.0000                                                             
     3  0  0.50        -7.7528   2.0000                                                             
     3  1  1.50        -2.7121   1.0000                                                             
     3  2  2.50        -2.7212   0.0000                                                             
   Description                                                                                      
     l       E           TYP  RCUT    TYP  RCUT                                                     
     0     -7.7528455     23  1.900                                                                 
     0     -3.3096929     23  1.900                                                                 
     1     -2.7120682     23  1.900                                                                 
     1     13.6058260     23  1.900                                                                 
     2     -2.7211652      7  1.900                                                                 
  local pseudopotential read in
  partial core-charges read in
  partial kinetic energy density read in
  atomic valenz-charges read in
  non local Contribution for L=           0  read in
    real space projection operators read in
  non local Contribution for L=           0  read in
    real space projection operators read in
  non local Contribution for L=           1  read in
    real space projection operators read in
  non local Contribution for L=           1  read in
    real space projection operators read in
    PAW grid and wavefunctions read in
 
   number of l-projection  operators is LMAX  =           4
   number of lm-projection operators is LMMAX =           8
 
 POTCAR:    PAW_PBE B 06Sep2000                   
   SHA256 =  a32ced30f5ae56fd4d10b4325ff17eb3e4e38ee0f4288bc219fb012fddfa6e97 B/POTCAR              
   COPYR  = (c) Copyright 06Sep2000 Georg Kresse                                                    
   COPYR  = This file is part of the software VASP. Any use, copying, and all other rights are regul
   COPYR  = If you do not have a valid VASP license, you may not use, copy or distribute this file. 
   VRHFIN =B: s2p1                                                                                  
   LEXCH  = PE                                                                                      
   EATOM  =    71.1703 eV,    5.2309 Ry                                                             
                                                                                                    
   TITEL  = PAW_PBE B 06Sep2000                                                                     
   LULTRA =        F    use ultrasoft PP ?                                                          
   IUNSCR =        1    unscreen: 0-lin 1-nonlin 2-no                                               
   RPACOR =    1.200    partial core radius                                                         
   POMASS =   10.811; ZVAL   =    3.000    mass and valenz                                          
   RCORE  =    1.700    outmost cutoff radius                                                       
   RWIGS  =    1.710; RWIGS  =    0.905    wigner-seitz radius (au A)                               
   ENMAX  =  318.614; ENMIN  =  238.960 eV                                                          
   ICORE  =        2    local potential                                                             
   LCOR   =        T    correct aug charges                                                         
   LPAW   =        T    paw PP                                                                      
   EAUG   =  535.514                                                                                
   DEXC   =    0.000                                                                                
   RMAX   =    1.732    core radius for proj-oper                                                   
   RAUG   =    1.300    factor for augmentation sphere                                              
   RDEP   =    1.757    radius for radial grids                                                     
   RDEPT  =    1.436    core radius for aug-charge                                                  
                                                                                                    
   Atomic configuration                                                                             
    4 entries                                                                                       
     n  l   j            E        occ.                                                              
     1  0  0.50      -180.5896   2.0000                                                             
     2  0  0.50        -9.4431   2.0000                                                             
     2  1  0.50        -3.6068   1.0000                                                             
     3  2  1.50        -4.0817   0.0000                                                             
   Description                                                                                      
     l       E           TYP  RCUT    TYP  RCUT                                                     
     0     -9.4430752     23  1.500                                                                 
     0      0.8675899     23  1.500                                                                 
     1     -3.6067955     23  1.700                                                                 
     1      6.1086146     23  1.700                                                                 
     2     -4.0817478      7  1.700                                                                 
  local pseudopotential read in
  partial core-charges read in
  partial kinetic energy density read in
  atomic valenz-charges read in
  non local Contribution for L=           0  read in
    real space projection operators read in
  non local Contribution for L=           0  read in
    real space projection operators read in
  non local Contribution for L=           1  read in
    real space projection operators read in
  non local Contribution for L=           1  read in
    real space projection operators read in
    PAW grid and wavefunctions read in
 
   number of l-projection  operators is LMAX  =           4
   number of lm-projection operators is LMMAX =           8
 
 Optimization of the real space projectors (new method)

 maximal supplied QI-value         = 16.25
 optimisation between [QCUT,QGAM] = [  9.10, 18.20] = [ 23.19, 92.78] Ry 
 Optimized for a Real-space Cutoff    1.50 Angstroem

   l    n(q)    QCUT    max X(q) W(low)/X(q) W(high)/X(q)  e(spline) 
   0      8     9.101    12.277    0.37E-04    0.34E-04    0.22E-07
   0      8     9.101    11.419    0.55E-04    0.79E-04    0.37E-07
   1      8     9.101     4.010    0.10E-03    0.23E-04    0.81E-07
   1      8     9.101     6.182    0.31E-03    0.17E-03    0.18E-06
   2      7     9.101    47.177    0.44E-03    0.41E-03    0.22E-06
   2      7     9.101    42.437    0.43E-03    0.40E-03    0.21E-06
 Optimization of the real space projectors (new method)

 maximal supplied QI-value         = 19.84
 optimisation between [QCUT,QGAM] = [  9.13, 18.25] = [ 23.33, 93.32] Ry 
 Optimized for a Real-space Cutoff    1.26 Angstroem

   l    n(q)    QCUT    max X(q) W(low)/X(q) W(high)/X(q)  e(spline) 
   0      7     9.127   176.870    0.31E-03    0.39E-03    0.66E-07
   0      7     9.127   105.762    0.31E-03    0.39E-03    0.65E-07
   1      6     9.127    55.370    0.10E-03    0.67E-03    0.11E-06
   1      6     9.127    20.208    0.90E-04    0.60E-03    0.11E-06
 Optimization of the real space projectors (new method)

 maximal supplied QI-value         = 22.11
 optimisation between [QCUT,QGAM] = [  9.07, 18.13] = [ 23.01, 92.04] Ry 
 Optimized for a Real-space Cutoff    1.46 Angstroem

   l    n(q)    QCUT    max X(q) W(low)/X(q) W(high)/X(q)  e(spline) 
   0      8     9.065    53.033    0.38E-03    0.70E-03    0.20E-06
   0      8     9.065    34.740    0.38E-03    0.69E-03    0.20E-06
   1      7     9.065    30.949    0.34E-03    0.21E-03    0.23E-06
   1      7     9.065    19.518    0.31E-03    0.17E-03    0.22E-06
  PAW_PBE Ti_sv 26Sep2005               :
 energy of atom  1       EATOM=-1588.0892
 kinetic energy error for atom=    0.0422 (will be added to EATOM!!)
  PAW_PBE Al 04Jan2001                  :
 energy of atom  2       EATOM=  -53.5387
 kinetic energy error for atom=    0.0008 (will be added to EATOM!!)
  PAW_PBE B 06Sep2000                   :
 energy of atom  3       EATOM=  -71.1703
 kinetic energy error for atom=    0.0071 (will be added to EATOM!!)
 
 
 POSCAR: Ti Al  B
  positions in cartesian coordinates
  No initial velocities read in
 exchange correlation table for  LEXCH =        8
   RHO(1)=    0.500       N(1)  =     2000
   RHO(2)=  100.500       N(2)  =     4000
 


--------------------------------------------------------------------------------------------------------


 ion  position               nearest neighbor table
   1  0.487  0.500  0.427-   4 1.61  17 2.14  13 2.20   8 2.46
   2  0.387  0.389  0.485-  14 1.77  17 2.12  11 2.53   4 2.77
   3  0.562  0.631  0.624-  15 2.36
   4  0.473  0.433  0.384-   1 1.61   2 2.77
   5  0.543  0.401  0.611-  11 2.29  12 2.51   9 2.72   6 3.25
   6  0.648  0.503  0.543-  12 1.76  15 1.80   8 1.83   5 3.25
   7  0.444  0.552  0.585-  17 2.03
   8  0.600  0.488  0.463-   6 1.83  12 1.85  15 2.09   1 2.46
   9  0.556  0.305  0.510-  11 1.90   5 2.72
  10  0.319  0.458  0.394-  14 2.10
  11  0.476  0.330  0.551-   9 1.90   5 2.29   2 2.53
  12  0.563  0.509  0.549-  15 1.61   6 1.76   8 1.85   5 2.51
  13  0.540  0.594  0.431-  15 2.16   1 2.20
  14  0.333  0.455  0.504-   2 1.77  17 1.82  10 2.10
  15  0.600  0.575  0.523-  12 1.61   6 1.80   8 2.09  13 2.16   3 2.36
  16  0.425  0.623  0.403-
  17  0.415  0.488  0.507-  14 1.82   7 2.03   2 2.12   1 2.14
  18  0.421  0.653  0.528-
 
  LATTYP: Found a simple orthorhombic cell.
 ALAT       =    18.7770921638
 B/A-ratio  =     1.0747575963
 C/A-ratio  =     1.1044721563
  
  Lattice vectors:
  
 A1 = (   0.0000000000,   0.0000000000, -18.7770921638)
 A2 = (   0.0000000000,  20.1808224396,   0.0000000000)
 A3 = (  20.7387754714,   0.0000000000,   0.0000000000)


Analysis of symmetry for initial positions (statically):
=====================================================================
 Subroutine PRICEL returns:
 Original cell was already a primitive cell.
 

 Routine SETGRP: Setting up the symmetry group for a 
 simple orthorhombic supercell.


 Subroutine GETGRP returns: Found  1 space group operations
 (whereof  1 operations were pure point group operations)
 out of a pool of  8 trial point group operations.


The static configuration has the point symmetry C_1 .


Analysis of symmetry for dynamics (positions and initial velocities):
=====================================================================
 Subroutine PRICEL returns:
 Original cell was already a primitive cell.
 

 Routine SETGRP: Setting up the symmetry group for a 
 simple orthorhombic supercell.


 Subroutine GETGRP returns: Found  1 space group operations
 (whereof  1 operations were pure point group operations)
 out of a pool of  8 trial point group operations.


The dynamic configuration has the point symmetry C_1 .


 Subroutine INISYM returns: Found  1 space group operations
 (whereof  1 operations are pure point group operations),
 and found     1 'primitive' translations


----------------------------------------------------------------------------------------

                                     Primitive cell                                     

  volume of cell :    7858.6927

  direct lattice vectors                    reciprocal lattice vectors
    20.738775471  0.000000000  0.000000000     0.048218855  0.000000000  0.000000000
     0.000000000 20.180822440  0.000000000     0.000000000  0.049551994  0.000000000
     0.000000000  0.000000000 18.777092164     0.000000000  0.000000000  0.053256382

  length of vectors
    20.738775471 20.180822440 18.777092164     0.048218855  0.049551994  0.053256382

  position of ions in fractional coordinates (direct lattice)
     0.487106910  0.500284541  0.426578164
     0.386524073  0.389308263  0.485409019
     0.561711695  0.631459201  0.623825615
     0.473155128  0.432949361  0.383674687
     0.543226330  0.400781386  0.610982036
     0.647646383  0.502851436  0.543413932
     0.444244225  0.551692491  0.584791844
     0.600431780  0.487800941  0.462560800
     0.556364122  0.305408928  0.509844933
     0.319068226  0.458319452  0.393636376
     0.476233945  0.330044657  0.550943428
     0.563392124  0.509265474  0.549190532
     0.540159461  0.594333516  0.431025889
     0.333124970  0.455448940  0.504310391
     0.600484837  0.574893008  0.522573687
     0.424816936  0.623394660  0.402600592
     0.414884855  0.488460129  0.507001657
     0.420739995  0.653123106  0.528289226

  ion indices of the primitive-cell ions
   primitive index   ion index
                 1           1
                 2           2
                 3           3
                 4           4
                 5           5
                 6           6
                 7           7
                 8           8
                 9           9
                10          10
                11          11
                12          12
                13          13
                14          14
                15          15
                16          16
                17          17
                18          18

----------------------------------------------------------------------------------------

 
 
 KPOINTS: KPOINTS created by Atomic Simulation Env

Automatic generation of k-mesh.
 Grid dimensions read from file:
 generate k-points for:    1    1    1

 Generating k-lattice:

  Cartesian coordinates                     Fractional coordinates (reciprocal lattice)
     0.048218855  0.000000000  0.000000000     1.000000000  0.000000000  0.000000000
     0.000000000  0.049551994  0.000000000     0.000000000  1.000000000  0.000000000
     0.000000000  0.000000000  0.053256382     0.000000000  0.000000000  1.000000000

  Length of vectors
     0.048218855  0.049551994  0.053256382

  Shift w.r.t. Gamma in fractional coordinates (k-lattice)
     0.000000000  0.000000000  0.000000000

 
 Subroutine IBZKPT returns following result:
 ===========================================
 
 Found      1 irreducible k-points:
 
 Following reciprocal coordinates:
            Coordinates               Weight
  0.000000  0.000000  0.000000      1.000000
 
 Following cartesian coordinates:
            Coordinates               Weight
  0.000000  0.000000  0.000000      1.000000
 


--------------------------------------------------------------------------------------------------------




 Dimension of arrays:
   k-points           NKPTS =      1   k-points in BZ     NKDIM =      1   number of bands    NBANDS=     48
   number of dos      NEDOS =    301   number of ions     NIONS =     18
   non local maximal  LDIM  =      6   non local SUM 2l+1 LMDIM =     18
   total plane-waves  NPLWV = 725760
   max r-space proj   IRMAX =   1360   max aug-charges    IRDMAX=   3793
   dimension x,y,z NGX =    96 NGY =   90 NGZ =   84
   dimension x,y,z NGXF=   192 NGYF=  180 NGZF=  168
   support grid    NGXF=   192 NGYF=  180 NGZF=  168
   ions per type =               2   4  12
   NGX,Y,Z   is equivalent  to a cutoff of   7.70,  7.41,  7.44 a.u.
   NGXF,Y,Z  is equivalent  to a cutoff of  15.39, 14.83, 14.87 a.u.

 SYSTEM =  unknown system                          
 POSCAR =  Ti Al  B                                

 Startparameter for this run:
   NWRITE =      2    write-flag & timer
   PREC   = normal    normal or accurate (medium, high low for compatibility)
   ISTART =      0    job   : 0-new  1-cont  2-samecut
   ICHARG =      2    charge: 1-file 2-atom 10-const
   ISPIN  =      1    spin polarized calculation?
   LNONCOLLINEAR =      F non collinear calculations
   LSORBIT =      F    spin-orbit coupling
   INIWAV =      1    electr: 0-lowe 1-rand  2-diag
   LASPH  =      T    aspherical Exc in radial PAW
 Electronic Relaxation 1
   ENCUT  =  318.6 eV  23.42 Ry    4.84 a.u.  30.18 29.37 27.33*2*pi/ulx,y,z
   ENINI  =  318.6     initial cutoff
   ENAUG  =  535.5 eV  augmentation charge cutoff
   NELM   =     60;   NELMIN=  2; NELMDL= -5     # of ELM steps 
   EDIFF  = 0.1E-03   stopping-criterion for ELM
   LREAL  =      T    real-space projection
   NLSPLINE    = F    spline interpolate recip. space projectors
   LCOMPAT=      F    compatible to vasp.4.4
   GGA_COMPAT  = T    GGA compatible to vasp.4.4-vasp.4.6
   LMAXPAW     = -100 max onsite density
   LMAXMIX     =    2 max onsite mixed and CHGCAR
   VOSKOWN=      0    Vosko Wilk Nusair interpolation
   ROPT   =   -0.00050  -0.00050  -0.00050
 Ionic relaxation
   EDIFFG = 0.1E-02   stopping-criterion for IOM
   NSW    =    500    number of steps for IOM
   NBLOCK =      1;   KBLOCK =    500    inner block; outer block 
   IBRION =      2    ionic relax: 0-MD 1-quasi-New 2-CG
   NFREE  =      1    steps in history (QN), initial steepest desc. (CG)
   ISIF   =      2    stress and relaxation
   IWAVPR =     11    prediction:  0-non 1-charg 2-wave 3-comb
   ISYM   =      2    0-nonsym 1-usesym 2-fastsym
   LCORR  =      T    Harris-Foulkes like correction to forces

   POTIM  = 0.5000    time-step for ionic-motion
   TEIN   =    0.0    initial temperature
   TEBEG  =    0.0;   TEEND  =   0.0 temperature during run
   SMASS  =  -3.00    Nose mass-parameter (am)
   estimated Nose-frequenzy (Omega)   =  0.10E-29 period in steps = 0.13E+47 mass=  -0.983E-26a.u.
   SCALEE = 1.0000    scale energy and forces
   NPACO  =    256;   APACO  = 10.0  distance and # of slots for P.C.
   PSTRESS=    0.0 pullay stress

  Mass of Ions in am
   POMASS =  47.88 26.98 10.81
  Ionic Valenz
   ZVAL   =  12.00  3.00  3.00
  Atomic Wigner-Seitz radii
   RWIGS  =  -1.00 -1.00 -1.00
  virtual crystal weights 
   VCA    =   1.00  1.00  1.00
   NELECT =      72.0000    total number of electrons
   NUPDOWN=      -1.0000    fix difference up-down

 DOS related values:
   EMIN   =  10.00;   EMAX   =-10.00  energy-range for DOS
   EFERMI =   0.00;   METHOD = LEGACY      
   ISMEAR =     0;   SIGMA  =   0.10  broadening in eV -4-tet -1-fermi 0-gaus

 Electronic relaxation 2 (details)
   IALGO  =     38    algorithm
   LDIAG  =      T    sub-space diagonalisation (order eigenvalues)
   LSUBROT=      F    optimize rotation matrix (better conditioning)
   TURBO    =      0    0=normal 1=particle mesh
   IRESTART =      0    0=no restart 2=restart with 2 vectors
   NREBOOT  =      0    no. of reboots
   NMIN     =      0    reboot dimension
   EREF     =   0.00    reference energy to select bands
   IMIX   =      4    mixing-type and parameters
     AMIX     =   0.40;   BMIX     =  1.00
     AMIX_MAG =   1.60;   BMIX_MAG =  1.00
     AMIN     =   0.10
     WC   =   100.;   INIMIX=   1;  MIXPRE=   1;  MAXMIX= -45

 Intra band minimization:
   WEIMIN = 0.0010     energy-eigenvalue tresh-hold
   EBREAK =  0.52E-06  absolut break condition
   DEPER  =   0.30     relativ break condition  

   TIME   =   0.40     timestep for ELM

  volume/ion in A,a.u.               =     436.59      2946.28
  Fermi-wavevector in a.u.,A,eV,Ry     =   0.342559  0.647343  1.596600  0.117347
  Thomas-Fermi vector in A             =   1.248020
 
 Write flags
   LWAVE        =      F    write WAVECAR
   LDOWNSAMPLE  =      F    k-point downsampling of WAVECAR
   LCHARG       =      F    write CHGCAR
   LVTOT        =      F    write LOCPOT, total local potential
   LVHAR        =      F    write LOCPOT, Hartree potential only
   LELF         =      F    write electronic localiz. function (ELF)
   LORBIT       =     10    0 simple, 1 ext, 2 COOP (PROOUT), +10 PAW based schemes


 Dipole corrections
   LMONO  =      F    monopole corrections only (constant potential shift)
   LDIPOL =      F    correct potential (dipole corrections)
   IDIPOL =      0    1-x, 2-y, 3-z, 4-all directions 
   EPSILON=  1.0000000 bulk dielectric constant

 Exchange correlation treatment:
   GGA     =    PE    GGA type
   LEXCH   =     8    internal setting for exchange type
   LIBXC   =     F    Libxc                    
   VOSKOWN =     0    Vosko Wilk Nusair interpolation
   LHFCALC =     F    Hartree Fock is set to
   LHFONE  =     F    Hartree Fock one center treatment
   AEXX    =    0.0000 exact exchange contribution

 Linear response parameters
   LEPSILON=     F    determine dielectric tensor
   LRPA    =     F    only Hartree local field effects (RPA)
   LNABLA  =     F    use nabla operator in PAW spheres
   LVEL    =     F    velocity operator in full k-point grid
   CSHIFT  =0.1000    complex shift for real part using Kramers Kronig
   OMEGAMAX=  -1.0    maximum frequency
   DEG_THRESHOLD= 0.2000000E-02 threshold for treating states as degnerate
   RTIME   =   -0.100 relaxation time in fs
  (WPLASMAI=    0.000 imaginary part of plasma frequency in eV, 0.658/RTIME)
   DFIELD  = 0.0000000 0.0000000 0.0000000 field for delta impulse in time
 
  Optional k-point grid parameters
   LKPOINTS_OPT  =     F    use optional k-point grid
   KPOINTS_OPT_MODE=     1    mode for optional k-point grid
 
 Orbital magnetization related:
   ORBITALMAG=     F  switch on orbital magnetization
   LCHIMAG   =     F  perturbation theory with respect to B field
   DQ        =  0.001000  dq finite difference perturbation B field
   LLRAUG    =     F  two centre corrections for induced B field
   LBONE     =     F  B-component reconstruction in AE one-centre
   LVGVCALC  =     T  calculate vGv susceptibility
   LVGVAPPL  =     F  apply vGv susceptibility instead of pGv for G=0

 Random number generation:
   RANDOM_GENERATOR = DEFAULT
   PCG_SEED         = not used


--------------------------------------------------------------------------------------------------------


 conjugate gradient relaxation of ions
 charge density and potential will be updated during run
 non-spin polarized calculation
 Variant of blocked Davidson
 Davidson routine will perform the subspace rotation
 perform sub-space diagonalisation
    after iterative eigenvector-optimisation
 modified Broyden-mixing scheme, WC =      100.0
 initial mixing is a Kerker type mixing with AMIX =  0.4000 and BMIX =      1.0000
 Hartree-type preconditioning will be used
 using additional bands           12
 real space projection scheme for non local part
 use partial core corrections
 calculate Harris-corrections to forces 
   (improved forces if not selfconsistent)
 use gradient corrections 
 use of overlap-Matrix (Vanderbilt PP)
 Gauss-broadening in eV      SIGMA  =   0.10


--------------------------------------------------------------------------------------------------------


  energy-cutoff  :      318.61
  volume of cell :     7858.69
      direct lattice vectors                 reciprocal lattice vectors
    20.738775471  0.000000000  0.000000000     0.048218855  0.000000000  0.000000000
     0.000000000 20.180822440  0.000000000     0.000000000  0.049551994  0.000000000
     0.000000000  0.000000000 18.777092164     0.000000000  0.000000000  0.053256382

  length of vectors
    20.738775471 20.180822440 18.777092164     0.048218855  0.049551994  0.053256382


 
 k-points in units of 2pi/SCALE and weight: KPOINTS created by Atomic Simulation Env
   0.00000000  0.00000000  0.00000000       1.000
 
 k-points in reciprocal lattice and weights: KPOINTS created by Atomic Simulation Env
   0.00000000  0.00000000  0.00000000       1.000
 
 position of ions in fractional coordinates (direct lattice) 
   0.48710691  0.50028454  0.42657816
   0.38652407  0.38930826  0.48540902
   0.56171169  0.63145920  0.62382562
   0.47315513  0.43294936  0.38367469
   0.54322633  0.40078139  0.61098204
   0.64764638  0.50285144  0.54341393
   0.44424423  0.55169249  0.58479184
   0.60043178  0.48780094  0.46256080
   0.55636412  0.30540893  0.50984493
   0.31906823  0.45831945  0.39363638
   0.47623395  0.33004466  0.55094343
   0.56339212  0.50926547  0.54919053
   0.54015946  0.59433352  0.43102589
   0.33312497  0.45544894  0.50431039
   0.60048484  0.57489301  0.52257369
   0.42481694  0.62339466  0.40260059
   0.41488485  0.48846013  0.50700166
   0.42073999  0.65312311  0.52828923
 
 position of ions in cartesian coordinates  (Angst):
  10.10200085 10.09615348  8.00989750
   8.01603595  7.85656094  9.11456988
  11.64921272 12.74336601 11.71363107
   9.81265797  8.73727418  7.20429496
  11.26584889  8.08809798 11.47246600
  13.43139292 10.14795555 10.20373348
   9.21308124 11.13360821 10.98069036
  12.45221986  9.84422418  8.68554677
  11.53831060  6.16340335  9.57340529
   6.61708431  9.24926348  7.39134650
   9.87650886  6.66057263 10.34511553
  11.68406276 10.27739610 10.31220124
  11.20224578 11.99413916  8.09341284
   6.90860395  9.19133419  9.46948269
  12.45332021 11.60181372  9.81241429
   8.81018305 12.58061693  7.55966841
   8.60420385  9.85752714  9.52001685
   8.72563228 13.18056144  9.91973549
 


--------------------------------------------------------------------------------------------------------


 k-point   1 :   0.0000 0.0000 0.0000  plane waves:  101433

 maximum and minimum number of plane-waves per node :     12689    12672

 maximum number of plane-waves:    101433
 maximum index in each direction: 
   IXMAX=   30   IYMAX=   29   IZMAX=   27
   IXMIN=  -30   IYMIN=  -29   IZMIN=  -27


 real space projection operators:
  total allocation   :       1421.52 KBytes
  max/ min on nodes  :        185.09        171.06


 parallel 3D FFT for wavefunctions:
    minimum data exchange during FFTs selected (reduces bandwidth)
 parallel 3D FFT for charge:
    minimum data exchange during FFTs selected (reduces bandwidth)


 total amount of memory used by VASP MPI-rank0    57439. kBytes
=======================================================================

   base      :      30000. kBytes
   nonlr-proj:        618. kBytes
   fftplans  :       8954. kBytes
   grid      :      15378. kBytes
   one-center:         46. kBytes
   wavefun   :       2443. kBytes
 
     INWAV:  cpu time      0.0001: real time      0.0252
 Broyden mixing: mesh for mixing (old mesh)
   NGX = 61   NGY = 59   NGZ = 55
  (NGX  =192   NGY  =180   NGZ  =168)
  gives a total of 197945 points

 initial charge density was supplied:
 charge density of overlapping atoms calculated
 number of electron      72.0000000 magnetization 
 keeping initial charge density in first step


--------------------------------------------------------------------------------------------------------


 Maximum index for non-local projection operator          178
 Maximum index for augmentation-charges          253 (set IRDMAX)


--------------------------------------------------------------------------------------------------------


 First call to EWALD:  gamma=   0.089
 Maximum number of real-space cells 3x 3x 3
 Maximum number of reciprocal cells 3x 3x 3

    FEWALD:  cpu time      0.0862: real time      0.0864


--------------------------------------- Ionic step        1  -------------------------------------------




--------------------------------------- Iteration      1(   1)  ---------------------------------------


    POTLOK:  cpu time      0.4017: real time      0.9779
    SETDIJ:  cpu time      0.5039: real time      0.5051
     EDDAV:  cpu time      3.7573: real time      4.2900
       DOS:  cpu time      0.5038: real time      0.5051
    --------------------------------------------
      LOOP:  cpu time      5.1667: real time      6.2781

 eigenvalue-minimisations  :   144
 total energy-change (2. order) : 0.3036266E+03  (-0.1808510E+04)
 number of electron      72.0000000 magnetization 
 augmentation part       72.0000000 magnetization 

 Free energy of the ion-electron system (eV)
  ---------------------------------------------------
  alpha Z        PSCENC =         3.99825575
  Ewald energy   TEWEN  =      4626.78809734
  -Hartree energ DENC   =     -7931.38840454
  -exchange      EXHF   =         0.00000000
  -V(xc)+E(xc)   XCENC  =        83.24799877
  PAW double counting   =      3315.92939605    -3138.67763419
  entropy T*S    EENTRO =        -0.08615191
  eigenvalues    EBANDS =      -900.38848218
  atomic energy  EATOM  =      4244.20348233
  Solvation  Ediel_sol  =         0.00000000
  ---------------------------------------------------
  free energy    TOTEN  =       303.62655741 eV

  energy without entropy =      303.71270931  energy(sigma->0) =      303.66963336


--------------------------------------------------------------------------------------------------------




--------------------------------------- Iteration      1(   2)  ---------------------------------------


     EDDAV:  cpu time      2.3683: real time      2.4395
       DOS:  cpu time      0.1251: real time      0.1254
    --------------------------------------------
      LOOP:  cpu time      2.4934: real time      2.5649

 eigenvalue-minimisations  :   152
 total energy-change (2. order) :-0.2743605E+03  (-0.2690208E+03)
 number of electron      72.0000000 magnetization 
 augmentation part       72.0000000 magnetization 

 Free energy of the ion-electron system (eV)
  ---------------------------------------------------
  alpha Z        PSCENC =         3.99825575
  Ewald energy   TEWEN  =      4626.78809734
  -Hartree energ DENC   =     -7931.38840454
  -exchange      EXHF   =         0.00000000
  -V(xc)+E(xc)   XCENC  =        83.24799877
  PAW double counting   =      3315.92939605    -3138.67763419
  entropy T*S    EENTRO =        -0.09278278
  eigenvalues    EBANDS =     -1174.74239548
  atomic energy  EATOM  =      4244.20348233
  Solvation  Ediel_sol  =         0.00000000
  ---------------------------------------------------
  free energy    TOTEN  =        29.26601323 eV

  energy without entropy =       29.35879602  energy(sigma->0) =       29.31240463


--------------------------------------------------------------------------------------------------------




--------------------------------------- Iteration      1(   3)  ---------------------------------------


     EDDAV:  cpu time      3.5681: real time      4.1218
       DOS:  cpu time      0.3981: real time      0.3991
    --------------------------------------------
      LOOP:  cpu time      3.9663: real time      4.5209

 eigenvalue-minimisations  :   152
 total energy-change (2. order) :-0.8865021E+02  (-0.8601901E+02)
 number of electron      72.0000000 magnetization 
 augmentation part       72.0000000 magnetization 

 Free energy of the ion-electron system (eV)
  ---------------------------------------------------
  alpha Z        PSCENC =         3.99825575
  Ewald energy   TEWEN  =      4626.78809734
  -Hartree energ DENC   =     -7931.38840454
  -exchange      EXHF   =         0.00000000
  -V(xc)+E(xc)   XCENC  =        83.24799877
  PAW double counting   =      3315.92939605    -3138.67763419
  entropy T*S    EENTRO =        -0.09693283
  eigenvalues    EBANDS =     -1263.38845636
  atomic energy  EATOM  =      4244.20348233
  Solvation  Ediel_sol  =         0.00000000
  ---------------------------------------------------
  free energy    TOTEN  =       -59.38419770 eV

  energy without entropy =      -59.28726487  energy(sigma->0) =      -59.33573128


--------------------------------------------------------------------------------------------------------




--------------------------------------- Iteration      1(   4)  ---------------------------------------


     EDDAV:  cpu time      2.4124: real time      2.8351
       DOS:  cpu time      0.1327: real time      0.1330
    --------------------------------------------
      LOOP:  cpu time      2.5451: real time      2.9681

 eigenvalue-minimisations  :   136
 total energy-change (2. order) :-0.1480256E+02  (-0.1407156E+02)
 number of electron      72.0000000 magnetization 
 augmentation part       72.0000000 magnetization 

 Free energy of the ion-electron system (eV)
  ---------------------------------------------------
  alpha Z        PSCENC =         3.99825575
  Ewald energy   TEWEN  =      4626.78809734
  -Hartree energ DENC   =     -7931.38840454
  -exchange      EXHF   =         0.00000000
  -V(xc)+E(xc)   XCENC  =        83.24799877
  PAW double counting   =      3315.92939605    -3138.67763419
  entropy T*S    EENTRO =        -0.09322822
  eigenvalues    EBANDS =     -1278.19471781
  atomic energy  EATOM  =      4244.20348233
  Solvation  Ediel_sol  =         0.00000000
  ---------------------------------------------------
  free energy    TOTEN  =       -74.18675454 eV

  energy without entropy =      -74.09352632  energy(sigma->0) =      -74.14014043


--------------------------------------------------------------------------------------------------------




--------------------------------------- Iteration      1(   5)  ---------------------------------------


     EDDAV:  cpu time      3.9837: real time      4.0635
       DOS:  cpu time      0.1141: real time      0.5444
    CHARGE:  cpu time      0.1329: real time      0.1333
    MIXING:  cpu time      0.1544: real time      0.1548
    --------------------------------------------
      LOOP:  cpu time      4.3852: real time      4.8961

 eigenvalue-minimisations  :   152
 total energy-change (2. order) :-0.1215569E+01  (-0.1174800E+01)
 number of electron      72.0000038 magnetization 
 augmentation part        6.8511689 magnetization 

 Broyden mixing:
  rms(total) = 0.23132E+01    rms(broyden)= 0.23125E+01
  rms(prec ) = 0.27586E+01
  weight for this iteration     100.00

 Free energy of the ion-electron system (eV)
  ---------------------------------------------------
  alpha Z        PSCENC =         3.99825575
  Ewald energy   TEWEN  =      4626.78809734
  -Hartree energ DENC   =     -7931.38840454
  -exchange      EXHF   =         0.00000000
  -V(xc)+E(xc)   XCENC  =        83.24799877
  PAW double counting   =      3315.92939605    -3138.67763419
  entropy T*S    EENTRO =        -0.07087321
  eigenvalues    EBANDS =     -1279.43264211
  atomic energy  EATOM  =      4244.20348233
  Solvation  Ediel_sol  =         0.00000000
  ---------------------------------------------------
  free energy    TOTEN  =       -75.40232382 eV

  energy without entropy =      -75.33145061  energy(sigma->0) =      -75.36688721


--------------------------------------------------------------------------------------------------------




--------------------------------------- Iteration      1(   6)  ---------------------------------------


    POTLOK:  cpu time      0.7562: real time      0.8180
    SETDIJ:  cpu time      0.1763: real time      0.1767
     EDDAV:  cpu time      2.4516: real time      2.8265
       DOS:  cpu time      0.0207: real time      0.0207
    CHARGE:  cpu time      0.1030: real time      0.1032
    MIXING:  cpu time      0.1486: real time      0.1490
    --------------------------------------------
      LOOP:  cpu time      3.6563: real time      4.0941

 eigenvalue-minimisations  :   136
 total energy-change (2. order) : 0.8514046E+01  (-0.1840104E+02)
 number of electron      72.0000013 magnetization 
 augmentation part        7.6213444 magnetization 

 Broyden mixing:
  rms(total) = 0.22793E+01    rms(broyden)= 0.22784E+01
  rms(prec ) = 0.29513E+01
  weight for this iteration     100.00

 eigenvalues of (default mixing * dielectric matrix)
  average eigenvalue GAMMA=   0.5218
  0.5218

 Free energy of the ion-electron system (eV)
  ---------------------------------------------------
  alpha Z        PSCENC =         3.99825575
  Ewald energy   TEWEN  =      4626.78809734
  -Hartree energ DENC   =     -8023.98907909
  -exchange      EXHF   =         0.00000000
  -V(xc)+E(xc)   XCENC  =        84.31892717
  PAW double counting   =      4232.08296535    -4053.50324023
  entropy T*S    EENTRO =        -0.04810996
  eigenvalues    EBANDS =     -1180.73957629
  atomic energy  EATOM  =      4244.20348233
  Solvation  Ediel_sol  =         0.00000000
  ---------------------------------------------------
  free energy    TOTEN  =       -66.88827764 eV

  energy without entropy =      -66.84016768  energy(sigma->0) =      -66.86422266


--------------------------------------------------------------------------------------------------------




--------------------------------------- Iteration      1(   7)  ---------------------------------------


    POTLOK:  cpu time      0.7723: real time      0.7926
    SETDIJ:  cpu time      0.3083: real time      0.3090
     EDDAV:  cpu time      2.3732: real time      2.3899
       DOS:  cpu time      0.0172: real time      0.0172
    CHARGE:  cpu time      0.1228: real time      0.1231
    MIXING:  cpu time      0.2404: real time      0.2410
    --------------------------------------------
      LOOP:  cpu time      3.8342: real time      3.8729

 eigenvalue-minimisations  :   144
 total energy-change (2. order) : 0.4981251E+01  (-0.1456293E+02)
 number of electron      72.0000041 magnetization 
 augmentation part        7.2850054 magnetization 

 Broyden mixing:
  rms(total) = 0.14771E+01    rms(broyden)= 0.14760E+01
  rms(prec ) = 0.19274E+01
  weight for this iteration     100.00

 eigenvalues of (default mixing * dielectric matrix)
  average eigenvalue GAMMA=   0.6009
  0.9021  0.2997

 Free energy of the ion-electron system (eV)
  ---------------------------------------------------
  alpha Z        PSCENC =         3.99825575
  Ewald energy   TEWEN  =      4626.78809734
  -Hartree energ DENC   =     -8027.04568913
  -exchange      EXHF   =         0.00000000
  -V(xc)+E(xc)   XCENC  =        85.13456175
  PAW double counting   =      4394.19979264    -4215.41327029
  entropy T*S    EENTRO =        -0.09469463
  eigenvalues    EBANDS =     -1173.67756197
  atomic energy  EATOM  =      4244.20348233
  Solvation  Ediel_sol  =         0.00000000
  ---------------------------------------------------
  free energy    TOTEN  =       -61.90702621 eV

  energy without entropy =      -61.81233158  energy(sigma->0) =      -61.85967890


--------------------------------------------------------------------------------------------------------




--------------------------------------- Iteration      1(   8)  ---------------------------------------


    POTLOK:  cpu time      0.6774: real time      0.6791
    SETDIJ:  cpu time      0.1098: real time      0.1210
     EDDAV:  cpu time      2.2530: real time      2.2695
       DOS:  cpu time      0.0162: real time      0.0163
    CHARGE:  cpu time      0.0913: real time      0.0915
    MIXING:  cpu time      0.1265: real time      0.1268
    --------------------------------------------
      LOOP:  cpu time      3.2742: real time      3.3041

 eigenvalue-minimisations  :   136
 total energy-change (2. order) : 0.4124493E+01  (-0.3506433E+01)
 number of electron      72.0000036 magnetization 
 augmentation part        6.4502612 magnetization 

 Broyden mixing:
  rms(total) = 0.83688E+00    rms(broyden)= 0.83640E+00
  rms(prec ) = 0.10074E+01
  weight for this iteration     100.00

 eigenvalues of (default mixing * dielectric matrix)
  average eigenvalue GAMMA=   0.6402
  1.2539  0.3333  0.3333

 Free energy of the ion-electron system (eV)
  ---------------------------------------------------
  alpha Z        PSCENC =         3.99825575
  Ewald energy   TEWEN  =      4626.78809734
  -Hartree energ DENC   =     -8035.61319261
  -exchange      EXHF   =         0.00000000
  -V(xc)+E(xc)   XCENC  =        85.47646008
  PAW double counting   =      4631.50149128    -4453.23030375
  entropy T*S    EENTRO =        -0.01861266
  eigenvalues    EBANDS =     -1160.88821057
  atomic energy  EATOM  =      4244.20348233
  Solvation  Ediel_sol  =         0.00000000
  ---------------------------------------------------
  free energy    TOTEN  =       -57.78253283 eV

  energy without entropy =      -57.76392017  energy(sigma->0) =      -57.77322650


--------------------------------------------------------------------------------------------------------




--------------------------------------- Iteration      1(   9)  ---------------------------------------


    POTLOK:  cpu time      0.3007: real time      0.5713
    SETDIJ:  cpu time      0.3964: real time      0.3973
     EDDAV:  cpu time      1.8190: real time      2.0724
       DOS:  cpu time      0.0143: real time      0.0144
    CHARGE:  cpu time      0.0929: real time      0.0931
    MIXING:  cpu time      0.0323: real time      0.0324
    --------------------------------------------
      LOOP:  cpu time      2.6556: real time      3.1808

 eigenvalue-minimisations  :   160
 total energy-change (2. order) : 0.1060391E+01  (-0.1017596E+01)
 number of electron      72.0000034 magnetization 
 augmentation part        6.8938682 magnetization 

 Broyden mixing:
  rms(total) = 0.51338E+00    rms(broyden)= 0.51315E+00
  rms(prec ) = 0.62209E+00
  weight for this iteration     100.00

 eigenvalues of (default mixing * dielectric matrix)
  average eigenvalue GAMMA=   0.7113
  1.6808  0.4240  0.4240  0.3165

 Free energy of the ion-electron system (eV)
  ---------------------------------------------------
  alpha Z        PSCENC =         3.99825575
  Ewald energy   TEWEN  =      4626.78809734
  -Hartree energ DENC   =     -8024.07984073
  -exchange      EXHF   =         0.00000000
  -V(xc)+E(xc)   XCENC  =        85.09896476
  PAW double counting   =      4847.98219875    -4669.53482299
  entropy T*S    EENTRO =        -0.10468928
  eigenvalues    EBANDS =     -1171.07378803
  atomic energy  EATOM  =      4244.20348233
  Solvation  Ediel_sol  =         0.00000000
  ---------------------------------------------------
  free energy    TOTEN  =       -56.72214211 eV

  energy without entropy =      -56.61745282  energy(sigma->0) =      -56.66979747


--------------------------------------------------------------------------------------------------------




--------------------------------------- Iteration      1(  10)  ---------------------------------------


    POTLOK:  cpu time      0.3733: real time      0.4139
    SETDIJ:  cpu time      0.3631: real time      0.3639
     EDDAV:  cpu time      2.4965: real time      2.7225
       DOS:  cpu time      0.2461: real time      0.2536
    CHARGE:  cpu time      0.0272: real time      0.1123
    MIXING:  cpu time      0.0061: real time      0.0342
    --------------------------------------------
      LOOP:  cpu time      3.5123: real time      3.9004

 eigenvalue-minimisations  :   144
 total energy-change (2. order) : 0.3948528E+00  (-0.3637816E+00)
 number of electron      72.0000034 magnetization 
 augmentation part        6.7020530 magnetization 

 Broyden mixing:
  rms(total) = 0.33641E+00    rms(broyden)= 0.33615E+00
  rms(prec ) = 0.41998E+00
  weight for this iteration     100.00

 eigenvalues of (default mixing * dielectric matrix)
  average eigenvalue GAMMA=   0.7193
  1.7845  0.5943  0.5943  0.3118  0.3118

 Free energy of the ion-electron system (eV)
  ---------------------------------------------------
  alpha Z        PSCENC =         3.99825575
  Ewald energy   TEWEN  =      4626.78809734
  -Hartree energ DENC   =     -8033.88028520
  -exchange      EXHF   =         0.00000000
  -V(xc)+E(xc)   XCENC  =        85.32361182
  PAW double counting   =      5091.24086523    -4911.69259287
  entropy T*S    EENTRO =        -0.05634403
  eigenvalues    EBANDS =     -1162.25237970
  atomic energy  EATOM  =      4244.20348233
  Solvation  Ediel_sol  =         0.00000000
  ---------------------------------------------------
  free energy    TOTEN  =       -56.32728933 eV

  energy without entropy =      -56.27094530  energy(sigma->0) =      -56.29911731


--------------------------------------------------------------------------------------------------------




--------------------------------------- Iteration      1(  11)  ---------------------------------------


    POTLOK:  cpu time      0.5992: real time      0.7860
    SETDIJ:  cpu time      0.0423: real time      0.2714
     EDDAV:  cpu time      3.0777: real time      3.1953
       DOS:  cpu time      0.0133: real time      0.0133
    CHARGE:  cpu time      0.0853: real time      0.0855
    MIXING:  cpu time      0.0287: real time      0.0287
    --------------------------------------------
      LOOP:  cpu time      3.8465: real time      4.3803

 eigenvalue-minimisations  :   136
 total energy-change (2. order) : 0.7818968E-01  (-0.2100135E+00)
 number of electron      72.0000029 magnetization 
 augmentation part        6.5778040 magnetization 

 Broyden mixing:
  rms(total) = 0.25501E+00    rms(broyden)= 0.25482E+00
  rms(prec ) = 0.33215E+00
  weight for this iteration     100.00

 eigenvalues of (default mixing * dielectric matrix)
  average eigenvalue GAMMA=   0.7743
  2.0097  1.0690  0.4986  0.4986  0.2850  0.2850

 Free energy of the ion-electron system (eV)
  ---------------------------------------------------
  alpha Z        PSCENC =         3.99825575
  Ewald energy   TEWEN  =      4626.78809734
  -Hartree energ DENC   =     -8046.05025543
  -exchange      EXHF   =         0.00000000
  -V(xc)+E(xc)   XCENC  =        85.61429050
  PAW double counting   =      5263.30837705    -5081.62228007
  entropy T*S    EENTRO =        -0.11915572
  eigenvalues    EBANDS =     -1152.36991138
  atomic energy  EATOM  =      4244.20348233
  Solvation  Ediel_sol  =         0.00000000
  ---------------------------------------------------
  free energy    TOTEN  =       -56.24909964 eV

  energy without entropy =      -56.12994393  energy(sigma->0) =      -56.18952179


--------------------------------------------------------------------------------------------------------




--------------------------------------- Iteration      1(  12)  ---------------------------------------


    POTLOK:  cpu time      0.3548: real time      0.3575
    SETDIJ:  cpu time      0.1510: real time      0.1513
     EDDAV:  cpu time      3.2122: real time      3.2229
       DOS:  cpu time      0.0127: real time      0.0127
    CHARGE:  cpu time      0.0807: real time      0.0809
    MIXING:  cpu time      0.0278: real time      0.0279
    --------------------------------------------
      LOOP:  cpu time      3.8391: real time      3.8531

 eigenvalue-minimisations  :   152
 total energy-change (2. order) :-0.5202232E-01  (-0.1907804E+00)
 number of electron      72.0000035 magnetization 
 augmentation part        7.0546829 magnetization 

 Broyden mixing:
  rms(total) = 0.37426E+00    rms(broyden)= 0.37392E+00
  rms(prec ) = 0.47077E+00
  weight for this iteration     100.00

 eigenvalues of (default mixing * dielectric matrix)
  average eigenvalue GAMMA=   0.7875
  1.7297  1.7297  0.6806  0.5613  0.3000  0.3000  0.2111

 Free energy of the ion-electron system (eV)
  ---------------------------------------------------
  alpha Z        PSCENC =         3.99825575
  Ewald energy   TEWEN  =      4626.78809734
  -Hartree energ DENC   =     -8041.60452495
  -exchange      EXHF   =         0.00000000
  -V(xc)+E(xc)   XCENC  =        85.56275667
  PAW double counting   =      5369.68474318    -5186.20475892
  entropy T*S    EENTRO =        -0.07588097
  eigenvalues    EBANDS =     -1158.65329240
  atomic energy  EATOM  =      4244.20348233
  Solvation  Ediel_sol  =         0.00000000
  ---------------------------------------------------
  free energy    TOTEN  =       -56.30112197 eV

  energy without entropy =      -56.22524099  energy(sigma->0) =      -56.26318148


--------------------------------------------------------------------------------------------------------




--------------------------------------- Iteration      1(  13)  ---------------------------------------


    POTLOK:  cpu time      0.2897: real time      0.6460
    SETDIJ:  cpu time      0.2162: real time      0.2167
     EDDAV:  cpu time      2.8798: real time      2.9072
       DOS:  cpu time      0.1030: real time      0.1033
    CHARGE:  cpu time      0.0733: real time      0.0735
    MIXING:  cpu time      0.0155: real time      0.0155
    --------------------------------------------
      LOOP:  cpu time      3.5774: real time      3.9621

 eigenvalue-minimisations  :   152
 total energy-change (2. order) : 0.1602049E+00  (-0.1088869E+00)
 number of electron      72.0000033 magnetization 
 augmentation part        6.7041943 magnetization 

 Broyden mixing:
  rms(total) = 0.11122E+00    rms(broyden)= 0.11060E+00
  rms(prec ) = 0.14196E+00
  weight for this iteration     100.00

 eigenvalues of (default mixing * dielectric matrix)
  average eigenvalue GAMMA=   0.8492
  1.9850  1.9850  0.9095  0.5548  0.5548  0.2937  0.2937  0.2170

 Free energy of the ion-electron system (eV)
  ---------------------------------------------------
  alpha Z        PSCENC =         3.99825575
  Ewald energy   TEWEN  =      4626.78809734
  -Hartree energ DENC   =     -8052.56671796
  -exchange      EXHF   =         0.00000000
  -V(xc)+E(xc)   XCENC  =        85.88056390
  PAW double counting   =      5394.61620795    -5209.84693011
  entropy T*S    EENTRO =        -0.10011731
  eigenvalues    EBANDS =     -1149.11375892
  atomic energy  EATOM  =      4244.20348233
  Solvation  Ediel_sol  =         0.00000000
  ---------------------------------------------------
  free energy    TOTEN  =       -56.14091704 eV

  energy without entropy =      -56.04079973  energy(sigma->0) =      -56.09085838


--------------------------------------------------------------------------------------------------------




--------------------------------------- Iteration      1(  14)  ---------------------------------------


    POTLOK:  cpu time      0.3499: real time      0.3507
    SETDIJ:  cpu time      0.1688: real time      0.1693
     EDDAV:  cpu time      2.8534: real time      2.8833
       DOS:  cpu time      0.0248: real time      0.0249
    CHARGE:  cpu time      0.0795: real time      0.0797
    MIXING:  cpu time      0.0419: real time      0.0420
    --------------------------------------------
      LOOP:  cpu time      3.5182: real time      3.5497

 eigenvalue-minimisations  :   144
 total energy-change (2. order) : 0.3066207E-02  (-0.1602010E-01)
 number of electron      72.0000032 magnetization 
 augmentation part        6.7108987 magnetization 

 Broyden mixing:
  rms(total) = 0.53514E-01    rms(broyden)= 0.53337E-01
  rms(prec ) = 0.71916E-01
  weight for this iteration     100.00

 eigenvalues of (default mixing * dielectric matrix)
  average eigenvalue GAMMA=   0.8722
  2.1316  2.1316  1.0114  0.6486  0.5618  0.5618  0.2933  0.2933  0.2165

 Free energy of the ion-electron system (eV)
  ---------------------------------------------------
  alpha Z        PSCENC =         3.99825575
  Ewald energy   TEWEN  =      4626.78809734
  -Hartree energ DENC   =     -8058.87585566
  -exchange      EXHF   =         0.00000000
  -V(xc)+E(xc)   XCENC  =        86.05929425
  PAW double counting   =      5425.83741813    -5239.59623294
  entropy T*S    EENTRO =        -0.10822890
  eigenvalues    EBANDS =     -1144.44408113
  atomic energy  EATOM  =      4244.20348233
  Solvation  Ediel_sol  =         0.00000000
  ---------------------------------------------------
  free energy    TOTEN  =       -56.13785083 eV

  energy without entropy =      -56.02962193  energy(sigma->0) =      -56.08373638


--------------------------------------------------------------------------------------------------------




--------------------------------------- Iteration      1(  15)  ---------------------------------------


    POTLOK:  cpu time      0.3943: real time      0.3952
    SETDIJ:  cpu time      0.1572: real time      0.1575
     EDDAV:  cpu time      2.7280: real time      2.7566
       DOS:  cpu time      0.1875: real time      0.1879
    CHARGE:  cpu time      0.0805: real time      0.0807
    MIXING:  cpu time      0.0450: real time      0.0451
    --------------------------------------------
      LOOP:  cpu time      3.5924: real time      3.6232

 eigenvalue-minimisations  :   144
 total energy-change (2. order) : 0.1578818E-02  (-0.4223994E-02)
 number of electron      72.0000032 magnetization 
 augmentation part        6.7048821 magnetization 

 Broyden mixing:
  rms(total) = 0.23077E-01    rms(broyden)= 0.22970E-01
  rms(prec ) = 0.35965E-01
  weight for this iteration     100.00

 eigenvalues of (default mixing * dielectric matrix)
  average eigenvalue GAMMA=   0.8673
  2.2371  2.0790  0.9435  0.9435  0.5852  0.5852  0.4978  0.2928  0.2928  0.2165

 Free energy of the ion-electron system (eV)
  ---------------------------------------------------
  alpha Z        PSCENC =         3.99825575
  Ewald energy   TEWEN  =      4626.78809734
  -Hartree energ DENC   =     -8062.27276123
  -exchange      EXHF   =         0.00000000
  -V(xc)+E(xc)   XCENC  =        86.15774770
  PAW double counting   =      5440.59119199    -5253.73281361
  entropy T*S    EENTRO =        -0.10660694
  eigenvalues    EBANDS =     -1141.76286533
  atomic energy  EATOM  =      4244.20348233
  Solvation  Ediel_sol  =         0.00000000
  ---------------------------------------------------
  free energy    TOTEN  =       -56.13627201 eV

  energy without entropy =      -56.02966507  energy(sigma->0) =      -56.08296854


--------------------------------------------------------------------------------------------------------




--------------------------------------- Iteration      1(  16)  ---------------------------------------


    POTLOK:  cpu time      0.3385: real time      0.4643
    SETDIJ:  cpu time      0.1603: real time      0.1607
     EDDAV:  cpu time      2.0750: real time      2.0900
       DOS:  cpu time      0.0211: real time      0.0212
    CHARGE:  cpu time      0.0802: real time      0.0804
    MIXING:  cpu time      0.0275: real time      0.0276
    --------------------------------------------
      LOOP:  cpu time      2.7028: real time      2.8443

 eigenvalue-minimisations  :   136
 total energy-change (2. order) :-0.6347168E-03  (-0.9214172E-03)
 number of electron      72.0000032 magnetization 
 augmentation part        6.6946733 magnetization 

 Broyden mixing:
  rms(total) = 0.14042E-01    rms(broyden)= 0.14034E-01
  rms(prec ) = 0.23830E-01
  weight for this iteration     100.00

 eigenvalues of (default mixing * dielectric matrix)
  average eigenvalue GAMMA=   0.8967
  2.5958  1.8832  1.1599  1.1599  0.6403  0.6403  0.5425  0.4402  0.2927  0.2927
  0.2165

 Free energy of the ion-electron system (eV)
  ---------------------------------------------------
  alpha Z        PSCENC =         3.99825575
  Ewald energy   TEWEN  =      4626.78809734
  -Hartree energ DENC   =     -8064.71500856
  -exchange      EXHF   =         0.00000000
  -V(xc)+E(xc)   XCENC  =        86.21224405
  PAW double counting   =      5442.88639630    -5255.81818771
  entropy T*S    EENTRO =        -0.10719224
  eigenvalues    EBANDS =     -1139.58499398
  atomic energy  EATOM  =      4244.20348233
  Solvation  Ediel_sol  =         0.00000000
  ---------------------------------------------------
  free energy    TOTEN  =       -56.13690673 eV

  energy without entropy =      -56.02971448  energy(sigma->0) =      -56.08331061


--------------------------------------------------------------------------------------------------------




--------------------------------------- Iteration      1(  17)  ---------------------------------------


    POTLOK:  cpu time      0.2517: real time      0.4412
    SETDIJ:  cpu time      0.5134: real time      0.5146
     EDDAV:  cpu time      2.8043: real time      3.3441
       DOS:  cpu time      0.1736: real time      0.1740
    CHARGE:  cpu time      0.1176: real time      0.1179
    MIXING:  cpu time      0.0416: real time      0.0417
    --------------------------------------------
      LOOP:  cpu time      3.9023: real time      4.6335

 eigenvalue-minimisations  :   136
 total energy-change (2. order) :-0.1983924E-02  (-0.4688604E-03)
 number of electron      72.0000032 magnetization 
 augmentation part        6.7072419 magnetization 

 Broyden mixing:
  rms(total) = 0.14614E-01    rms(broyden)= 0.14602E-01
  rms(prec ) = 0.21355E-01
  weight for this iteration     100.00

 eigenvalues of (default mixing * dielectric matrix)
  average eigenvalue GAMMA=   0.9570
  2.4999  2.4999  1.3605  1.3605  0.7392  0.6522  0.5744  0.5744  0.2165  0.2928
  0.2928  0.4205

 Free energy of the ion-electron system (eV)
  ---------------------------------------------------
  alpha Z        PSCENC =         3.99825575
  Ewald energy   TEWEN  =      4626.78809734
  -Hartree energ DENC   =     -8067.11849475
  -exchange      EXHF   =         0.00000000
  -V(xc)+E(xc)   XCENC  =        86.26071670
  PAW double counting   =      5444.34131290    -5257.07406385
  entropy T*S    EENTRO =        -0.10720532
  eigenvalues    EBANDS =     -1137.43099175
  atomic energy  EATOM  =      4244.20348233
  Solvation  Ediel_sol  =         0.00000000
  ---------------------------------------------------
  free energy    TOTEN  =       -56.13889065 eV

  energy without entropy =      -56.03168533  energy(sigma->0) =      -56.08528799


--------------------------------------------------------------------------------------------------------




--------------------------------------- Iteration      1(  18)  ---------------------------------------


    POTLOK:  cpu time      0.2834: real time      0.4741
    SETDIJ:  cpu time      0.4251: real time      0.4261
     EDDAV:  cpu time      2.2374: real time      2.4228
       DOS:  cpu time      0.2866: real time      0.2873
    CHARGE:  cpu time      0.1249: real time      0.1252
    MIXING:  cpu time      0.1523: real time      0.1527
    --------------------------------------------
      LOOP:  cpu time      3.5096: real time      3.8882

 eigenvalue-minimisations  :   128
 total energy-change (2. order) :-0.3371025E-02  (-0.2882036E-03)
 number of electron      72.0000032 magnetization 
 augmentation part        6.6976488 magnetization 

 Broyden mixing:
  rms(total) = 0.71573E-02    rms(broyden)= 0.71343E-02
  rms(prec ) = 0.12434E-01
  weight for this iteration     100.00

 eigenvalues of (default mixing * dielectric matrix)
  average eigenvalue GAMMA=   1.0172
  2.8086  2.8086  1.4645  1.4645  0.9658  0.7851  0.5848  0.5626  0.5626  0.2928
  0.2928  0.2165  0.4151

 Free energy of the ion-electron system (eV)
  ---------------------------------------------------
  alpha Z        PSCENC =         3.99825575
  Ewald energy   TEWEN  =      4626.78809734
  -Hartree energ DENC   =     -8069.60071303
  -exchange      EXHF   =         0.00000000
  -V(xc)+E(xc)   XCENC  =        86.30411096
  PAW double counting   =      5434.59228432    -5247.34792125
  entropy T*S    EENTRO =        -0.10701575
  eigenvalues    EBANDS =     -1134.97284234
  atomic energy  EATOM  =      4244.20348233
  Solvation  Ediel_sol  =         0.00000000
  ---------------------------------------------------
  free energy    TOTEN  =       -56.14226168 eV

  energy without entropy =      -56.03524593  energy(sigma->0) =      -56.08875380


--------------------------------------------------------------------------------------------------------




--------------------------------------- Iteration      1(  19)  ---------------------------------------


    POTLOK:  cpu time      0.2446: real time      0.6631
    SETDIJ:  cpu time      0.1975: real time      0.1980
     EDDAV:  cpu time      1.9467: real time      2.2254
       DOS:  cpu time      0.2052: real time      0.2057
    CHARGE:  cpu time      0.0760: real time      0.0762
    MIXING:  cpu time      0.0282: real time      0.0283
    --------------------------------------------
      LOOP:  cpu time      2.6982: real time      3.3966

 eigenvalue-minimisations  :    88
 total energy-change (2. order) :-0.3784322E-02  (-0.9706336E-04)
 number of electron      72.0000032 magnetization 
 augmentation part        6.6957169 magnetization 

 Broyden mixing:
  rms(total) = 0.52668E-02    rms(broyden)= 0.52651E-02
  rms(prec ) = 0.82974E-02
  weight for this iteration     100.00

 eigenvalues of (default mixing * dielectric matrix)
  average eigenvalue GAMMA=   1.1109
  3.9306  2.4727  1.9285  1.4384  1.2034  0.9355  0.2165  0.2928  0.2928  0.6993
  0.5712  0.5712  0.5851  0.4148

 Free energy of the ion-electron system (eV)
  ---------------------------------------------------
  alpha Z        PSCENC =         3.99825575
  Ewald energy   TEWEN  =      4626.78809734
  -Hartree energ DENC   =     -8071.87663221
  -exchange      EXHF   =         0.00000000
  -V(xc)+E(xc)   XCENC  =        86.33935469
  PAW double counting   =      5430.19267988    -5242.94358523
  entropy T*S    EENTRO =        -0.10700043
  eigenvalues    EBANDS =     -1132.74069812
  atomic energy  EATOM  =      4244.20348233
  Solvation  Ediel_sol  =         0.00000000
  ---------------------------------------------------
  free energy    TOTEN  =       -56.14604600 eV

  energy without entropy =      -56.03904556  energy(sigma->0) =      -56.09254578


--------------------------------------------------------------------------------------------------------




--------------------------------------- Iteration      1(  20)  ---------------------------------------


    POTLOK:  cpu time      0.2456: real time      0.3794
    SETDIJ:  cpu time      0.1866: real time      0.1870
     EDDAV:  cpu time      1.6951: real time      1.6993
       DOS:  cpu time      0.2243: real time      0.2248
    CHARGE:  cpu time      0.2058: real time      0.2063
    MIXING:  cpu time      0.1552: real time      0.1556
    --------------------------------------------
      LOOP:  cpu time      2.7126: real time      2.8525

 eigenvalue-minimisations  :    88
 total energy-change (2. order) :-0.3693160E-02  (-0.7835486E-04)
 number of electron      72.0000032 magnetization 
 augmentation part        6.6995578 magnetization 

 Broyden mixing:
  rms(total) = 0.26872E-02    rms(broyden)= 0.26824E-02
  rms(prec ) = 0.42903E-02
  weight for this iteration     100.00

 eigenvalues of (default mixing * dielectric matrix)
  average eigenvalue GAMMA=   1.1976
  4.7475  2.8349  1.7824  1.7824  1.1619  1.1619  0.7789  0.7789  0.2165  0.2928
  0.2928  0.5709  0.5709  0.5762  0.4145

 Free energy of the ion-electron system (eV)
  ---------------------------------------------------
  alpha Z        PSCENC =         3.99825575
  Ewald energy   TEWEN  =      4626.78809734
  -Hartree energ DENC   =     -8073.53542376
  -exchange      EXHF   =         0.00000000
  -V(xc)+E(xc)   XCENC  =        86.35795198
  PAW double counting   =      5429.80964513    -5242.60322523
  entropy T*S    EENTRO =        -0.10678487
  eigenvalues    EBANDS =     -1131.06173782
  atomic energy  EATOM  =      4244.20348233
  Solvation  Ediel_sol  =         0.00000000
  ---------------------------------------------------
  free energy    TOTEN  =       -56.14973916 eV

  energy without entropy =      -56.04295429  energy(sigma->0) =      -56.09634672


--------------------------------------------------------------------------------------------------------




--------------------------------------- Iteration      1(  21)  ---------------------------------------


    POTLOK:  cpu time      0.2763: real time      0.4408
    SETDIJ:  cpu time      0.1429: real time      0.1432
     EDDAV:  cpu time      1.5126: real time      1.9342
       DOS:  cpu time      0.0002: real time      0.0002
    CHARGE:  cpu time      0.0709: real time      0.0711
    MIXING:  cpu time      0.0263: real time      0.0264
    --------------------------------------------
      LOOP:  cpu time      2.0292: real time      2.6159

 eigenvalue-minimisations  :    88
 total energy-change (2. order) :-0.2284249E-02  (-0.2805671E-04)
 number of electron      72.0000032 magnetization 
 augmentation part        6.6996746 magnetization 

 Broyden mixing:
  rms(total) = 0.18129E-02    rms(broyden)= 0.18122E-02
  rms(prec ) = 0.29162E-02
  weight for this iteration     100.00

 eigenvalues of (default mixing * dielectric matrix)
  average eigenvalue GAMMA=   1.2928
  5.8681  2.6299  2.3920  1.8951  1.2446  1.2446  0.8770  0.8770  0.2165  0.2928
  0.2928  0.7084  0.5695  0.5695  0.5931  0.4145

 Free energy of the ion-electron system (eV)
  ---------------------------------------------------
  alpha Z        PSCENC =         3.99825575
  Ewald energy   TEWEN  =      4626.78809734
  -Hartree energ DENC   =     -8074.15711893
  -exchange      EXHF   =         0.00000000
  -V(xc)+E(xc)   XCENC  =        86.35892638
  PAW double counting   =      5427.97924984    -5240.83299516
  entropy T*S    EENTRO =        -0.10676795
  eigenvalues    EBANDS =     -1130.38315300
  atomic energy  EATOM  =      4244.20348233
  Solvation  Ediel_sol  =         0.00000000
  ---------------------------------------------------
  free energy    TOTEN  =       -56.15202341 eV

  energy without entropy =      -56.04525546  energy(sigma->0) =      -56.09863943


--------------------------------------------------------------------------------------------------------




--------------------------------------- Iteration      1(  22)  ---------------------------------------


    POTLOK:  cpu time      0.4214: real time      0.6842
    SETDIJ:  cpu time      0.1615: real time      0.1619
     EDDAV:  cpu time      1.5083: real time      1.7859
       DOS:  cpu time      0.0050: real time      0.0051
    CHARGE:  cpu time      0.0567: real time      0.1508
    MIXING:  cpu time      0.0103: real time      0.0333
    --------------------------------------------
      LOOP:  cpu time      2.1631: real time      2.8212

 eigenvalue-minimisations  :    72
 total energy-change (2. order) :-0.1519317E-02  (-0.1058474E-04)
 number of electron      72.0000032 magnetization 
 augmentation part        6.6995578 magnetization 

 Broyden mixing:
  rms(total) = 0.12855E-02    rms(broyden)= 0.12846E-02
  rms(prec ) = 0.19794E-02
  weight for this iteration     100.00

 eigenvalues of (default mixing * dielectric matrix)
  average eigenvalue GAMMA=   1.3269
  6.3772  2.7348  2.5511  1.8922  1.4009  1.1517  1.1517  0.8312  0.8312  0.2165
  0.2928  0.2928  0.6868  0.5698  0.5698  0.5926  0.4145

 Free energy of the ion-electron system (eV)
  ---------------------------------------------------
  alpha Z        PSCENC =         3.99825575
  Ewald energy   TEWEN  =      4626.78809734
  -Hartree energ DENC   =     -8074.49786086
  -exchange      EXHF   =         0.00000000
  -V(xc)+E(xc)   XCENC  =        86.36057186
  PAW double counting   =      5429.07088505    -5241.91250822
  entropy T*S    EENTRO =        -0.10660847
  eigenvalues    EBANDS =     -1130.05785750
  atomic energy  EATOM  =      4244.20348233
  Solvation  Ediel_sol  =         0.00000000
  ---------------------------------------------------
  free energy    TOTEN  =       -56.15354273 eV

  energy without entropy =      -56.04693426  energy(sigma->0) =      -56.10023849


--------------------------------------------------------------------------------------------------------




--------------------------------------- Iteration      1(  23)  ---------------------------------------


    POTLOK:  cpu time      0.1064: real time      0.4375
    SETDIJ:  cpu time      0.1719: real time      0.2523
     EDDAV:  cpu time      1.2223: real time      1.3192
       DOS:  cpu time      0.0179: real time      0.0179
    CHARGE:  cpu time      0.0943: real time      0.0946
    MIXING:  cpu time      0.1292: real time      0.2175
    --------------------------------------------
      LOOP:  cpu time      1.7420: real time      2.3391

 eigenvalue-minimisations  :    56
 total energy-change (2. order) :-0.1048527E-02  (-0.5437532E-05)
 number of electron      72.0000032 magnetization 
 augmentation part        6.6990479 magnetization 

 Broyden mixing:
  rms(total) = 0.72646E-03    rms(broyden)= 0.72611E-03
  rms(prec ) = 0.11882E-02
  weight for this iteration     100.00

 eigenvalues of (default mixing * dielectric matrix)
  average eigenvalue GAMMA=   1.4379
  7.0327  3.6234  2.2640  2.2640  1.9939  1.2333  1.2333  0.9168  0.9168  0.2165
  0.2928  0.2928  0.7750  0.6814  0.5694  0.5694  0.5930  0.4145

 Free energy of the ion-electron system (eV)
  ---------------------------------------------------
  alpha Z        PSCENC =         3.99825575
  Ewald energy   TEWEN  =      4626.78809734
  -Hartree energ DENC   =     -8074.64893102
  -exchange      EXHF   =         0.00000000
  -V(xc)+E(xc)   XCENC  =        86.36049068
  PAW double counting   =      5429.37914562    -5242.21627845
  entropy T*S    EENTRO =        -0.10665477
  eigenvalues    EBANDS =     -1129.91219872
  atomic energy  EATOM  =      4244.20348233
  Solvation  Ediel_sol  =         0.00000000
  ---------------------------------------------------
  free energy    TOTEN  =       -56.15459125 eV

  energy without entropy =      -56.04793648  energy(sigma->0) =      -56.10126386


--------------------------------------------------------------------------------------------------------




--------------------------------------- Iteration      1(  24)  ---------------------------------------


    POTLOK:  cpu time      0.3790: real time      0.3859
    SETDIJ:  cpu time      0.0435: real time      0.1716
     EDDAV:  cpu time      0.8989: real time      1.1481
       DOS:  cpu time      0.0102: real time      0.0102
    CHARGE:  cpu time      0.0603: real time      0.0604
    MIXING:  cpu time      0.0361: real time      0.0362
    --------------------------------------------
      LOOP:  cpu time      1.4280: real time      1.8124

 eigenvalue-minimisations  :    72
 total energy-change (2. order) :-0.1155862E-02  (-0.1156838E-04)
 number of electron      72.0000032 magnetization 
 augmentation part        6.6981612 magnetization 

 Broyden mixing:
  rms(total) = 0.10135E-02    rms(broyden)= 0.10119E-02
  rms(prec ) = 0.12810E-02
  weight for this iteration     100.00

[...]
 augmentation part        7.3055330 magnetization 

 Broyden mixing:
  rms(total) = 0.59189E-02    rms(broyden)= 0.59156E-02
  rms(prec ) = 0.65425E-02
  weight for this iteration     100.00

 eigenvalues of (default mixing * dielectric matrix)
  average eigenvalue GAMMA=   0.7682
  0.7682

 Free energy of the ion-electron system (eV)
  ---------------------------------------------------
  alpha Z        PSCENC =         3.99825575
  Ewald energy   TEWEN  =      6318.64547296
  -Hartree energ DENC   =     -9762.98823982
  -exchange      EXHF   =         0.00000000
  -V(xc)+E(xc)   XCENC  =        98.78883450
  PAW double counting   =      6652.55576570    -6475.50251101
  entropy T*S    EENTRO =        -0.00000000
  eigenvalues    EBANDS =     -1176.66806038
  atomic energy  EATOM  =      4244.20348233
  Solvation  Ediel_sol  =         0.00000000
  ---------------------------------------------------
  free energy    TOTEN  =       -96.96699996 eV

  energy without entropy =      -96.96699996  energy(sigma->0) =      -96.96699996


--------------------------------------------------------------------------------------------------------




--------------------------------------- Iteration    103(   3)  ---------------------------------------


    POTLOK:  cpu time      0.4160: real time      0.4170
    SETDIJ:  cpu time      0.1486: real time      0.2019
     EDDAV:  cpu time      1.6083: real time      1.7791
       DOS:  cpu time      0.0757: real time      0.0759
    --------------------------------------------
      LOOP:  cpu time      2.2486: real time      2.4740

 eigenvalue-minimisations  :    88
 total energy-change (2. order) : 0.2979236E-04  (-0.4195553E-04)
 number of electron      71.9999825 magnetization 
 augmentation part        7.3055330 magnetization 

 Free energy of the ion-electron system (eV)
  ---------------------------------------------------
  alpha Z        PSCENC =         3.99825575
  Ewald energy   TEWEN  =      6318.64547296
  -Hartree energ DENC   =     -9762.70672597
  -exchange      EXHF   =         0.00000000
  -V(xc)+E(xc)   XCENC  =        98.78162385
  PAW double counting   =      6651.58492459    -6474.53739972
  entropy T*S    EENTRO =        -0.00000000
  eigenvalues    EBANDS =     -1176.93660395
  atomic energy  EATOM  =      4244.20348233
  Solvation  Ediel_sol  =         0.00000000
  ---------------------------------------------------
  free energy    TOTEN  =       -96.96697017 eV

  energy without entropy =      -96.96697016  energy(sigma->0) =      -96.96697017


--------------------------------------------------------------------------------------------------------




 average (electrostatic) potential at core
  the test charge radii are     1.0397  1.0406  0.7672
  (the norm of the test charge is              1.0000)
       1 -85.1510       2 -84.9627       3 -84.8093       4 -84.4312       5 -84.3162
       6 -84.5922       7 -36.3212       8 -36.3099       9 -36.0902      10 -35.7367
      11 -35.9100      12 -36.1564      13 -35.8568      14 -35.6841      15 -36.3738
      16 -36.2040      17 -36.0356      18 -36.5324
 
 
 
 E-fermi :  -4.1523     XC(G=0):  -0.5873     alpha+bet : -0.3659

 Fermi energy:        -4.1523056020

 k-point     1 :       0.0000    0.0000    0.0000
  band No.  band energies     occupation 
      1     -61.1014      2.00000
      2     -60.9301      2.00000
      3     -37.6989      2.00000
      4     -37.5226      2.00000
      5     -37.4248      2.00000
      6     -37.2376      2.00000
      7     -37.1816      2.00000
      8     -37.0605      2.00000
      9     -16.5034      2.00000
     10     -14.9430      2.00000
     11     -14.5731      2.00000
     12     -13.7618      2.00000
     13     -12.6750      2.00000
     14     -11.5786      2.00000
     15     -11.3282      2.00000
     16     -10.8512      2.00000
     17     -10.1227      2.00000
     18      -9.3727      2.00000
     19      -8.8742      2.00000
     20      -8.2486      2.00000
     21      -8.0675      2.00000
     22      -7.8292      2.00000
     23      -7.5777      2.00000
     24      -7.1808      2.00000
     25      -6.9465      2.00000
     26      -6.8101      2.00000
     27      -6.4447      2.00000
     28      -6.2515      2.00000
     29      -5.9519      2.00000
     30      -5.9097      2.00000
     31      -5.7203      2.00000
     32      -5.2502      2.00000
     33      -5.1220      2.00000
     34      -5.0982      2.00000
     35      -4.7233      2.00000
     36      -4.5948      2.00000
     37      -3.7097      0.00000
     38      -3.4908      0.00000
     39      -3.2028      0.00000
     40      -2.9811      0.00000
     41      -2.8715      0.00000
     42      -2.8110      0.00000
     43      -2.6380      0.00000
     44      -2.5179      0.00000
     45      -2.2907      0.00000
     46      -2.0087      0.00000
     47      -1.7215      0.00000
     48      -1.6767      0.00000


--------------------------------------------------------------------------------------------------------


 soft charge-density along one line, spin component           1
         0         1         2         3         4         5         6         7         8         9
 total charge-density along one line
 
 pseudopotential strength for first ion, spin component:           1
 -1.870 -26.834   0.007  -0.024  -0.003  -0.004   0.012  -0.002
-26.834  13.581  -0.002   0.019   0.009   0.001  -0.003  -0.000
  0.007  -0.002 -30.067   0.008   0.089  12.414  -0.006  -0.058
 -0.024   0.019   0.008 -30.260  -0.102  -0.006  12.542   0.067
 -0.003   0.009   0.089  -0.102 -30.139  -0.058   0.067  12.460
 -0.004   0.001  12.414  -0.006  -0.058   4.173   0.003   0.025
  0.012  -0.003  -0.006  12.542   0.067   0.003   4.121  -0.030
 -0.002  -0.000  -0.058   0.067  12.460   0.025  -0.030   4.150
  0.066   0.013  -0.002   0.001   0.008   0.000   0.000  -0.003
  0.006   0.002  -0.008   0.001   0.001   0.007  -0.000   0.000
 -0.065  -0.018  -0.005  -0.006   0.003   0.003   0.006  -0.001
 -0.076  -0.014   0.001   0.007  -0.012   0.000  -0.003   0.008
 -0.028  -0.003  -0.001  -0.002   0.003   0.002   0.001  -0.002
  0.082   0.014  -0.002   0.001   0.010   0.001   0.000  -0.004
  0.007   0.002  -0.011   0.001   0.001   0.010  -0.001   0.000
 -0.081  -0.021  -0.006  -0.008   0.004   0.004   0.009  -0.002
 -0.094  -0.016   0.001   0.009  -0.016   0.000  -0.003   0.012
 -0.035  -0.003  -0.002  -0.003   0.004   0.003   0.001  -0.001
 total augmentation occupancy for first ion, spin component:           1
  1.997  -0.039   0.000  -0.003  -0.001   0.001  -0.007  -0.003   0.023   0.005  -0.016  -0.031  -0.009  -0.024  -0.005   0.019
 -0.039   1.090   0.002  -0.025  -0.009   0.006   0.133   0.046   0.127   0.135  -0.304  -0.272   0.100  -0.068  -0.089   0.155
  0.000   0.002   1.983   0.000  -0.000  -0.037   0.000  -0.001  -0.001  -0.022   0.002  -0.000  -0.012  -0.002   0.013  -0.001
 -0.003  -0.025   0.000   1.985   0.000   0.000  -0.034  -0.000  -0.001   0.015  -0.031  -0.023   0.004   0.001  -0.012   0.019
 -0.001  -0.009  -0.000   0.000   1.983  -0.001  -0.000  -0.038   0.001  -0.000  -0.005  -0.014  -0.010   0.000   0.001   0.007
  0.001   0.006  -0.037   0.000  -0.001   0.127   0.008   0.012   0.130   0.226  -0.005  -0.065  -0.104  -0.063  -0.139   0.001
 -0.007   0.133   0.000  -0.034  -0.000   0.008   0.083  -0.015  -0.048   0.015   0.284  -0.045   0.031   0.028  -0.015  -0.172
 -0.003   0.046  -0.001  -0.000  -0.038   0.012  -0.015   0.133  -0.117  -0.057  -0.133   0.309   0.071   0.054   0.029   0.087
  0.023   0.127  -0.001  -0.001   0.001   0.130  -0.048  -0.117   3.247  -0.441  -0.759  -0.322   0.146  -1.765   0.201   0.371
  0.005   0.135  -0.022   0.015  -0.000   0.226   0.015  -0.057  -0.441   2.690   0.138  -0.253  -0.596   0.207  -1.384  -0.035
 -0.016  -0.304   0.002  -0.031  -0.005  -0.005   0.284  -0.133  -0.759   0.138   3.047  -0.179  -0.074   0.392  -0.040  -1.668
 -0.031  -0.272  -0.000  -0.023  -0.014  -0.065  -0.045   0.309  -0.322  -0.253  -0.179   2.811  -0.382   0.151   0.140   0.119
 -0.009   0.100  -0.012   0.004  -0.010  -0.104   0.031   0.071   0.146  -0.596  -0.074  -0.382   3.613  -0.049   0.354   0.091
 -0.024  -0.068  -0.002   0.001   0.000  -0.063   0.028   0.054  -1.765   0.207   0.392   0.151  -0.049   1.012  -0.104  -0.216
 -0.005  -0.089   0.013  -0.012   0.001  -0.139  -0.015   0.029   0.201  -1.384  -0.040   0.140   0.354  -0.104   0.760   0.017
  0.019   0.155  -0.001   0.019   0.007   0.001  -0.172   0.087   0.371  -0.035  -1.668   0.119   0.091  -0.216   0.017   0.974
  0.032   0.166   0.001   0.017   0.006   0.030   0.028  -0.179   0.147   0.141   0.123  -1.501   0.189  -0.084  -0.084  -0.078
  0.010  -0.066   0.011  -0.004   0.006   0.063  -0.017  -0.044  -0.053   0.347   0.089   0.184  -1.853   0.018  -0.210  -0.061


------------------------ aborting loop because EDIFF is reached ----------------------------------------





 total charge

# of ion       s       p       d       tot
------------------------------------------
    1        2.161   6.134   2.028  10.323
    2        2.176   6.120   2.074  10.369
    3        0.418   0.362   0.000   0.780
    4        0.431   0.408   0.000   0.839
    5        0.423   0.384   0.000   0.808
    6        0.490   0.282   0.000   0.772
    7        0.719   1.354   0.000   2.073
    8        0.713   1.249   0.000   1.962
    9        0.725   1.156   0.000   1.881
   10        0.729   1.237   0.000   1.966
   11        0.752   1.228   0.000   1.980
   12        0.713   1.272   0.000   1.985
   13        0.749   1.249   0.000   1.998
   14        0.756   1.234   0.000   1.990
   15        0.760   1.175   0.000   1.934
   16        0.756   1.211   0.000   1.967
   17        0.717   1.315   0.000   2.032
   18        0.721   1.264   0.000   1.985
--------------------------------------------------
tot         14.909  28.634   4.102  47.644
 
    CHARGE:  cpu time      0.0950: real time      0.0952
    FORLOC:  cpu time      0.0704: real time      0.0706
    FORNL :  cpu time      0.1709: real time      0.2353
    STRESS:  cpu time      1.0874: real time      1.0900
    FORCOR:  cpu time      0.5038: real time      0.5050
    FORHAR:  cpu time      0.1526: real time      0.1530
    MIXING:  cpu time      0.0211: real time      0.0211
    OFIELD:  cpu time      0.0000: real time      0.0000

  FORCE on cell =-STRESS in cart. coord.  units (eV):
  Direction    XX          YY          ZZ          XY          YZ          ZX
  --------------------------------------------------------------------------------------
  Alpha Z     3.99826     3.99826     3.99826
  Ewald    1819.20693  3183.91585  1315.52053   305.76309  -301.63009   -35.34602
  Hartree  2957.35060  4129.95724  2676.23827   279.32729  -266.99074   -48.58895
  E(xc)    -272.70281  -272.38347  -273.32938    -0.09021     0.24830     0.02302
  Local   -5429.24673 -7971.18297 -4638.38267  -591.12508   566.82528    82.93808
  n-local    15.05909    18.34889    14.70126    -0.37479    -2.42780     1.90734
  augment   127.20809   128.59926   123.32441     0.54165     1.69650    -0.96172
  Kinetic   778.15460   777.63207   776.84727     5.94231     2.26372     0.15991
  Fock        0.00000     0.00000     0.00000     0.00000     0.00000     0.00000
  -------------------------------------------------------------------------------------
  Total      -0.97198    -1.11488    -1.08205    -0.01574    -0.01483     0.13166
  in kB      -0.19816    -0.22729    -0.22060    -0.00321    -0.00302     0.02684
  external pressure =       -0.22 kB  Pullay stress =        0.00 kB


 VOLUME and BASIS-vectors are now :
 -----------------------------------------------------------------------------
  energy-cutoff  :      318.61
  volume of cell :     7858.69
      direct lattice vectors                 reciprocal lattice vectors
    20.738775471  0.000000000  0.000000000     0.048218855  0.000000000  0.000000000
     0.000000000 20.180822440  0.000000000     0.000000000  0.049551994  0.000000000
     0.000000000  0.000000000 18.777092164     0.000000000  0.000000000  0.053256382

  length of vectors
    20.738775471 20.180822440 18.777092164     0.048218855  0.049551994  0.053256382


 FORCES acting on ions
    electron-ion (+dipol)            ewald-force                    non-local-force                 convergence-correction
 -----------------------------------------------------------------------------------------------
   0.114E+03 -.203E+03 0.597E+03   -.112E+03 0.202E+03 -.592E+03   -.222E+01 0.282E+00 -.509E+01   0.536E-01 0.359E-02 0.386E-02
   0.286E+03 0.411E+03 -.536E+03   -.283E+03 -.408E+03 0.529E+03   -.340E+01 -.345E+01 0.720E+01   0.398E-01 -.216E-01 -.319E-01
   -.107E+03 -.141E+03 -.128E+03   0.106E+03 0.137E+03 0.125E+03   0.801E+00 0.352E+01 0.285E+01   0.804E-02 0.142E-02 -.595E-02
   -.962E+02 0.119E+03 0.161E+03   0.932E+02 -.117E+03 -.154E+03   0.299E+01 -.206E+01 -.663E+01   0.130E-01 -.654E-02 -.660E-02
   -.156E+03 0.104E+03 -.761E+02   0.151E+03 -.103E+03 0.740E+02   0.491E+01 -.143E+01 0.213E+01   0.152E-01 0.237E-02 -.570E-02
   -.160E+03 -.181E+02 -.707E+02   0.159E+03 0.172E+02 0.721E+02   0.136E+01 0.819E+00 -.138E+01   0.544E-03 0.160E-02 -.495E-02
   0.189E+02 -.102E+03 -.220E+03   -.185E+02 0.100E+03 0.220E+03   -.414E+00 0.223E+01 -.255E+00   0.146E-01 0.268E-01 0.639E-03
   -.194E+03 0.620E+02 0.611E+02   0.195E+03 -.610E+02 -.625E+02   -.769E+00 -.875E+00 0.136E+01   0.838E-02 0.583E-02 0.103E-01
   -.951E+02 0.204E+03 -.302E+02   0.931E+02 -.203E+03 0.307E+02   0.196E+01 -.835E+00 -.419E+00   0.107E-01 -.153E-01 -.171E-01
   0.129E+03 0.119E+03 0.170E+03   -.131E+03 -.120E+03 -.169E+03   0.166E+01 0.116E+00 -.124E+01   -.195E-01 -.560E-02 -.223E-01
   0.567E+02 0.219E+03 0.829E+02   -.574E+02 -.220E+03 -.818E+02   0.728E+00 0.255E+00 -.114E+01   0.952E-02 -.225E-01 -.115E-01
   -.145E+03 0.157E+01 -.133E+03   0.144E+03 -.362E+01 0.134E+03   0.114E+01 0.205E+01 -.125E+01   0.362E-01 0.236E-01 -.532E-02
   -.105E+03 -.187E+03 0.102E+03   0.104E+03 0.187E+03 -.102E+03   0.553E+00 0.431E+00 0.472E+00   0.724E-02 0.527E-02 0.271E-01
   0.253E+03 0.106E+02 0.858E+02   -.252E+03 -.117E+02 -.856E+02   -.663E+00 0.113E+01 -.187E+00   -.196E-01 0.265E-03 -.273E-01
   -.201E+03 -.699E+02 0.954E+02   0.200E+03 0.700E+02 -.959E+02   0.110E+01 -.809E-01 0.535E+00   0.124E-01 0.144E-02 0.225E-01
   0.349E+02 -.237E+03 0.179E+02   -.346E+02 0.237E+03 -.182E+02   -.289E+00 0.473E+00 0.231E+00   0.173E-01 0.714E-02 0.990E-02
   0.236E+03 -.975E+02 -.816E+02   -.237E+03 0.951E+02 0.792E+02   0.942E+00 0.238E+01 0.240E+01   -.587E-02 0.344E-01 -.818E-02
   0.120E+03 -.200E+03 -.982E+02   -.119E+03 0.201E+03 0.957E+02   -.384E+00 -.141E+01 0.248E+01   -.581E-02 0.731E-02 0.665E-02
 -----------------------------------------------------------------------------------------------
   -.102E+02 -.359E+01 -.200E+01   -.853E-13 -.227E-12 -.284E-13   0.100E+02 0.354E+01 0.208E+01   0.196E+00 0.496E-01 -.659E-01
 
 
 POSITION                                       TOTAL-FORCE (eV/Angst)
 -----------------------------------------------------------------------------------
      9.61228     10.71318      8.31601        -0.023202     -0.050947      0.020533
      8.97376      8.56053     10.47103         0.009269     -0.033907      0.018051
     11.13313     12.06886     10.44256        -0.007846     -0.000108     -0.017360
     10.58340      8.17737      8.07297        -0.013053     -0.005708      0.032352
     11.92420      8.05467     10.43465         0.030488      0.002016      0.021874
     13.06837     10.33031     10.58918        -0.015169     -0.008550      0.007471
      9.40823     10.74422     10.71564         0.038452     -0.023183     -0.012022
     11.69727      9.79847      8.82948         0.016016      0.058726     -0.000110
     10.41142      6.83304      9.71508        -0.033883     -0.013035     -0.019171
      8.36700      8.22931      8.30580        -0.018549      0.040844     -0.021936
      9.13657      6.91378      8.84348         0.035283      0.007795      0.000868
     10.71343      9.80912     10.30585        -0.010689      0.019218     -0.034226
     11.06892     12.60633      8.24923        -0.017331     -0.016146      0.004225
      7.69228      9.50159      8.88840        -0.011282     -0.005035     -0.002757
     11.90561     11.28965      8.32153        -0.018665      0.008099      0.025686
      9.78063     13.00939      8.99280         0.046618     -0.012701     -0.050798
      8.00042     10.64602      9.92524         0.019302      0.027583      0.006999
      8.88569     12.11803      9.96269        -0.025758      0.005040      0.020321
 -----------------------------------------------------------------------------------
    total drift:                               -0.017746      0.004597      0.014464


--------------------------------------------------------------------------------------------------------



  FREE ENERGIE OF THE ION-ELECTRON SYSTEM (eV)
  ---------------------------------------------------
  free  energy   TOTEN  =       -96.96697017 eV

  energy  without entropy=      -96.96697016  energy(sigma->0) =      -96.96697017
 
 d Force = 0.4111197E-03[-0.519E-04, 0.874E-03]  d Energy = 0.3003529E-03 0.111E-03
 d Force = 0.1587281E+01[ 0.159E+01, 0.158E+01]  d Ewald  = 0.1587282E+01-0.568E-06


--------------------------------------------------------------------------------------------------------


    POTLOK:  cpu time      0.4810: real time      0.7038


--------------------------------------------------------------------------------------------------------




--------------------------------------------------------------------------------------------------------


  
 reached required accuracy - stopping structural energy minimisation
     LOOP+:  cpu time     10.0304: real time     11.3040
    4ORBIT:  cpu time      0.0000: real time      0.0000



 total charge

# of ion       s       p       d       tot
------------------------------------------
    1        2.161   6.134   2.028  10.323
    2        2.176   6.120   2.074  10.369
    3        0.418   0.362   0.000   0.780
    4        0.431   0.408   0.000   0.839
    5        0.423   0.384   0.000   0.808
    6        0.490   0.282   0.000   0.772
    7        0.719   1.354   0.000   2.073
    8        0.713   1.249   0.000   1.962
    9        0.725   1.156   0.000   1.881
   10        0.729   1.237   0.000   1.966
   11        0.752   1.228   0.000   1.980
   12        0.713   1.272   0.000   1.985
   13        0.749   1.249   0.000   1.998
   14        0.756   1.234   0.000   1.990
   15        0.760   1.175   0.000   1.934
   16        0.756   1.211   0.000   1.967
   17        0.717   1.315   0.000   2.032
   18        0.721   1.264   0.000   1.985
--------------------------------------------------
tot         14.909  28.634   4.102  47.644
 

 total amount of memory used by VASP MPI-rank0    57439. kBytes
=======================================================================

   base      :      30000. kBytes
   nonlr-proj:        618. kBytes
   fftplans  :       8954. kBytes
   grid      :      15378. kBytes
   one-center:         46. kBytes
   wavefun   :       2443. kBytes
 
  
  
 General timing and accounting informations for this job:
 ========================================================
  
                  Total CPU time used (sec):     3133.598
                            User time (sec):     3123.146
                          System time (sec):       10.452
                         Elapsed time (sec):     3600.874
  
                   Maximum memory used (kb):      305360.
                   Average memory used (kb):          N/A
  
                          Minor page faults:      3984217
                          Major page faults:            0
                 Voluntary context switches:         7246
