unknown system                          
           1
    20.738775    0.000000    0.000000
     0.000000   20.180822    0.000000
     0.000000    0.000000   18.777092
   Ti   Al   B 
     2     4    12
Direct configuration=     1
   0.48710691  0.50028454  0.42657816
   0.38652407  0.38930826  0.48540902
   0.56171169  0.63145920  0.62382562
   0.47315513  0.43294936  0.38367469
   0.54322633  0.40078139  0.61098204
   0.64764638  0.50285144  0.54341393
   0.44424423  0.55169249  0.58479184
   0.60043178  0.48780094  0.46256080
   0.55636412  0.30540893  0.50984493
   0.31906823  0.45831945  0.39363638
   0.47623395  0.33004466  0.55094343
   0.56339212  0.50926547  0.54919053
   0.54015946  0.59433352  0.43102589
   0.33312497  0.45544894  0.50431039
   0.60048484  0.57489301  0.52257369
   0.42481694  0.62339466  0.40260059
   0.41488485  0.48846013  0.50700166
   0.42073999  0.65312311  0.52828923
Direct configuration=     2
   0.49714768  0.54948527  0.45958592
   0.39528261  0.38048610  0.48187284
   0.56081171  0.62980265  0.62161010
   0.46367877  0.38343461  0.35236536
   0.54241866  0.40220590  0.60702408
   0.67168678  0.49462255  0.55198680
   0.44536464  0.55212898  0.57619066
   0.59177082  0.48952281  0.45654723
   0.55074501  0.30861159  0.51359741
   0.32119755  0.45730398  0.40012849
   0.48039866  0.33059166  0.54681904
   0.54663586  0.50738104  0.55034181
   0.54224971  0.59241544  0.43684228
   0.32958369  0.46581921  0.50248375
   0.59234741  0.58597372  0.51600562
   0.42803183  0.62170193  0.40829616
   0.41129034  0.49154013  0.51317187
   0.42267426  0.64679192  0.52578338
Direct configuration=     3
   0.49179467  0.52325504  0.44198860
   0.39061320  0.38518943  0.48375807
   0.56129152  0.63068580  0.62279125
   0.46873087  0.40983226  0.36905721
   0.54284925  0.40144645  0.60913417
   0.65887019  0.49900959  0.54741637
   0.44476732  0.55189628  0.58077618
   0.59638821  0.48860484  0.45975323
   0.55374071  0.30690417  0.51159686
   0.32006235  0.45784535  0.39666737
   0.47817834  0.33030004  0.54901786
   0.55556908  0.50838568  0.54972803
   0.54113534  0.59343802  0.43374140
   0.33147164  0.46029054  0.50345758
   0.59668569  0.58006629  0.51950724
   0.42631788  0.62260437  0.40525970
   0.41320667  0.48989810  0.50988236
   0.42164305  0.65016724  0.52711931
Direct configuration=     4
   0.49237198  0.52608390  0.44388642
   0.39111678  0.38468219  0.48355475
   0.56123977  0.63059056  0.62266387
   0.46818602  0.40698534  0.36725703
   0.54280281  0.40152836  0.60890661
   0.66025243  0.49853646  0.54790928
   0.44483174  0.55192137  0.58028165
   0.59589024  0.48870384  0.45940747
   0.55341763  0.30708831  0.51181261
   0.32018478  0.45778697  0.39704064
   0.47841779  0.33033149  0.54878073
   0.55460565  0.50827733  0.54979423
   0.54125552  0.59332774  0.43407583
   0.33126803  0.46088679  0.50335256
   0.59621782  0.58070339  0.51912960
   0.42650273  0.62250704  0.40558717
   0.41300000  0.49007519  0.51023713
   0.42175426  0.64980322  0.52697523
Direct configuration=     5
   0.48504292  0.52125132  0.45048369
   0.39358194  0.38278915  0.48257958
   0.55992108  0.62866808  0.62035707
   0.46746555  0.40161951  0.36469495
   0.54200020  0.40282925  0.60339960
   0.66460828  0.49671064  0.54933742
   0.44604285  0.55158764  0.57148774
   0.59135228  0.49174233  0.46020090
   0.54851052  0.31002266  0.51584201
   0.32250811  0.45635165  0.40482094
   0.48186943  0.33116489  0.54533626
   0.55028955  0.50924314  0.54992926
   0.55334802  0.60543534  0.43702204
   0.33311831  0.46437863  0.49862945
   0.58991626  0.58003594  0.51424288
   0.43007965  0.62058783  0.41217978
   0.40996209  0.49166851  0.51581018
   0.42369895  0.64373298  0.52429908
Direct configuration=     6
   0.48168604  0.51903788  0.45350540
   0.39471105  0.38192209  0.48213292
   0.55931708  0.62778754  0.61930049
   0.46713556  0.39916184  0.36352146
   0.54163259  0.40342509  0.60087725
   0.66660336  0.49587437  0.54999154
   0.44659756  0.55143478  0.56745992
   0.58927379  0.49313403  0.46056431
   0.54626294  0.31136667  0.51768757
   0.32357225  0.45569424  0.40838451
   0.48345036  0.33154661  0.54375861
   0.54831268  0.50968550  0.54999110
   0.55888668  0.61098092  0.43837148
   0.33396578  0.46597798  0.49646615
   0.58702999  0.57973023  0.51200464
   0.43171797  0.61970878  0.41519935
   0.40857065  0.49239828  0.51836278
   0.42458966  0.64095266  0.52307334
Direct configuration=     7
   0.47497227  0.51461100  0.45954881
   0.39696926  0.38018798  0.48123961
   0.55810910  0.62602645  0.61718735
   0.46647558  0.39424648  0.36117447
   0.54089735  0.40461677  0.59583256
   0.67059353  0.49420183  0.55129978
   0.44770700  0.55112906  0.55940428
   0.58511680  0.49591744  0.46129113
   0.54176779  0.31405468  0.52137869
   0.32570054  0.45437942  0.41551164
   0.48661222  0.33231005  0.54060331
   0.54435892  0.51057023  0.55011480
   0.56996399  0.62207207  0.44107035
   0.33566072  0.46917667  0.49213955
   0.58125746  0.57911882  0.50752817
   0.43499460  0.61795068  0.42123849
   0.40578778  0.49385784  0.52346796
   0.42637109  0.63539203  0.52062185
Direct configuration=     8
   0.47993968  0.51788638  0.45507738
   0.39529845  0.38147102  0.48190056
   0.55900287  0.62732945  0.61875083
   0.46696389  0.39788328  0.36291097
   0.54144134  0.40373506  0.59956505
   0.66764127  0.49543932  0.55033183
   0.44688615  0.55135526  0.56536453
   0.58819249  0.49385804  0.46075336
   0.54509368  0.31206586  0.51864768
   0.32412585  0.45535223  0.41023838
   0.48427281  0.33174519  0.54293787
   0.54728424  0.50991563  0.55002328
   0.56176805  0.61386590  0.43907350
   0.33440666  0.46681001  0.49534073
   0.58552847  0.57957120  0.51084024
   0.43257027  0.61925147  0.41677022
   0.40784678  0.49277794  0.51969071
   0.42505304  0.63950626  0.52243567
Direct configuration=     9
   0.47902584  0.51738909  0.45520606
   0.39789186  0.38251501  0.48140524
   0.55723361  0.62482031  0.61561806
   0.46706633  0.39492112  0.36193379
   0.54079410  0.40515700  0.59188761
   0.66945224  0.49400750  0.55064961
   0.44861777  0.55360510  0.55582658
   0.58324718  0.49867956  0.46411734
   0.55053924  0.31290713  0.51904509
   0.32711773  0.45277588  0.41824217
   0.47647878  0.33567105  0.54387390
   0.54398816  0.51224187  0.54993720
   0.56723368  0.61991681  0.44130024
   0.33741676  0.46982356  0.49082156
   0.58115049  0.57578941  0.50802400
   0.43729758  0.61785479  0.42772998
   0.40049926  0.49141818  0.52758766
   0.42826537  0.63032612  0.51744673
Direct configuration=    10
   0.47889022  0.51731529  0.45522515
   0.39827676  0.38266995  0.48133173
   0.55697103  0.62444791  0.61515310
   0.46708153  0.39448149  0.36178876
   0.54069803  0.40536803  0.59074816
   0.66972102  0.49379499  0.55069677
   0.44887477  0.55393901  0.55441099
   0.58251322  0.49939516  0.46461661
   0.55134745  0.31303199  0.51910407
   0.32756177  0.45239351  0.41943006
   0.47532202  0.33625372  0.54401283
   0.54349897  0.51258713  0.54992443
   0.56804487  0.62081487  0.44163072
   0.33786351  0.47027082  0.49015084
   0.58050072  0.57522813  0.50760602
   0.43799919  0.61764750  0.42935659
   0.39940877  0.49121637  0.52875969
   0.42874214  0.62896363  0.51670629
Direct configuration=    11
   0.47816950  0.51677789  0.45237942
   0.39961323  0.38533761  0.48105335
   0.55477050  0.62154533  0.61140701
   0.46775445  0.39270718  0.36118319
   0.54042522  0.40774586  0.58207287
   0.66962581  0.49252164  0.55034037
   0.45044508  0.55666201  0.54739401
   0.57840071  0.50499633  0.46876565
   0.55121269  0.31638611  0.52159107
   0.33007249  0.44568215  0.41472814
   0.47294575  0.33743238  0.54316370
   0.53999381  0.51507138  0.55129867
   0.56901167  0.62445356  0.44268584
   0.33997319  0.47514654  0.49737808
   0.57897059  0.57047773  0.50597949
   0.44388825  0.61659120  0.44065719
   0.39497787  0.49162066  0.53654723
   0.43306516  0.61866393  0.51202752
Direct configuration=    12
   0.47851281  0.51703387  0.45373496
   0.39897662  0.38406689  0.48118595
   0.55581870  0.62292795  0.61319143
   0.46743391  0.39355236  0.36147165
   0.54055517  0.40661320  0.58620527
   0.66967116  0.49312819  0.55051014
   0.44969708  0.55536493  0.55073649
   0.58035967  0.50232826  0.46678929
   0.55127689  0.31478840  0.52040641
   0.32887653  0.44887905  0.41696786
   0.47407767  0.33687093  0.54356817
   0.54166347  0.51388803  0.55064406
   0.56855115  0.62272030  0.44218324
   0.33896826  0.47282403  0.49393544
   0.57969946  0.57274054  0.50675427
   0.44108305  0.61709436  0.43527425
   0.39708849  0.49142808  0.53283771
   0.43100593  0.62357010  0.51425621
Direct configuration=    13
   0.47763532  0.51621190  0.45065488
   0.39882588  0.38619599  0.48122548
   0.55431825  0.62121323  0.61086262
   0.46801177  0.39343320  0.36146862
   0.54080258  0.40866198  0.58131025
   0.66838636  0.49257887  0.54990688
   0.45077339  0.55416759  0.55128079
   0.57933721  0.50375985  0.46806417
   0.54734859  0.31815693  0.52312330
   0.33103385  0.44494889  0.41499744
   0.47643592  0.33542295  0.54172545
   0.53917932  0.51479541  0.55273713
   0.56607835  0.62266911  0.44287676
   0.33583325  0.47329690  0.49480486
   0.58113803  0.57257585  0.50627320
   0.44570404  0.61654629  0.43522047
   0.39973715  0.49449204  0.53767392
   0.43273673  0.62069250  0.51644658
Direct configuration=    14
   0.47727987  0.51587894  0.44940721
   0.39876482  0.38705843  0.48124148
   0.55371045  0.62051864  0.60991928
   0.46824584  0.39338493  0.36146740
   0.54090280  0.40949188  0.57932741
   0.66786592  0.49235636  0.54966252
   0.45120938  0.55368258  0.55150127
   0.57892303  0.50433974  0.46858059
   0.54575735  0.31952144  0.52422385
   0.33190773  0.44335688  0.41419928
   0.47739119  0.33483641  0.54097902
   0.53817306  0.51516297  0.55358498
   0.56507668  0.62264838  0.44315769
   0.33456334  0.47348845  0.49515704
   0.58172076  0.57250914  0.50607833
   0.44757589  0.61632427  0.43519868
   0.40081005  0.49573317  0.53963294
   0.43343783  0.61952686  0.51733384
Direct configuration=    15
   0.47644035  0.51510957  0.44668394
   0.39889080  0.38927396  0.48171375
   0.55186915  0.61879400  0.60759973
   0.46873318  0.39351655  0.36168609
   0.54120432  0.41191868  0.57446350
   0.66618512  0.49183981  0.54892996
   0.45411894  0.55087449  0.55551749
   0.57832401  0.50366763  0.46906872
   0.54516211  0.32191927  0.52599675
   0.33445512  0.44033782  0.41460102
   0.47604281  0.33402582  0.53968463
   0.53556255  0.51675265  0.55500300
   0.56073836  0.62175471  0.44392059
   0.33452424  0.47375092  0.49543066
   0.58354177  0.57376725  0.50633793
   0.45289760  0.61655407  0.43500207
   0.39964763  0.49682198  0.54129660
   0.43497793  0.61914031  0.51771639
Direct configuration=    16
   0.47448907  0.51332133  0.44035423
   0.39918359  0.39442351  0.48281142
   0.54758942  0.61478543  0.60220840
   0.46986589  0.39382248  0.36219440
   0.54190516  0.41755929  0.56315834
   0.66227844  0.49063920  0.54722729
   0.46088164  0.54434764  0.56485238
   0.57693170  0.50210543  0.47020328
   0.54377862  0.32749253  0.53011752
   0.34037602  0.43332062  0.41553478
   0.47290878  0.33214176  0.53667609
   0.52949495  0.52044755  0.55829888
   0.55065479  0.61967755  0.44569379
   0.33443335  0.47436098  0.49606663
   0.58777433  0.57669146  0.50694132
   0.46526683  0.61708819  0.43454510
   0.39694582  0.49935271  0.54516342
   0.43855759  0.61824183  0.51860554
Direct configuration=    17
   0.47503538  0.51382199  0.44212638
   0.39910162  0.39298177  0.48250410
   0.54878764  0.61590773  0.60371783
   0.46954876  0.39373683  0.36205209
   0.54170895  0.41598006  0.56632349
   0.66337221  0.49097534  0.54770399
   0.45898826  0.54617499  0.56223885
   0.57732151  0.50254281  0.46988563
   0.54416596  0.32593216  0.52896381
   0.33871832  0.43528525  0.41527335
   0.47378623  0.33266925  0.53751840
   0.53119372  0.51941308  0.55737612
   0.55347793  0.62025910  0.44519734
   0.33445879  0.47419018  0.49588857
   0.58658932  0.57587275  0.50677239
   0.46180377  0.61693865  0.43467304
   0.39770226  0.49864417  0.54408081
   0.43755538  0.61849338  0.51835660
Direct configuration=    18
   0.47404260  0.51370994  0.44185039
   0.40053489  0.39325057  0.48435751
   0.54623757  0.61496218  0.60195213
   0.47002328  0.39381767  0.36238880
   0.54191482  0.41920773  0.56158324
   0.66154711  0.49051362  0.54706864
   0.45871657  0.54493589  0.56582944
   0.57648065  0.50209244  0.47118440
   0.54599767  0.32659541  0.52983638
   0.34060020  0.43415598  0.41669109
   0.47013100  0.33265955  0.53633227
   0.53139239  0.52039840  0.55681587
   0.54637753  0.61849670  0.44648981
   0.33638698  0.47473619  0.49489184
   0.58787561  0.57596712  0.50564617
   0.46872902  0.61846845  0.43576930
   0.39544250  0.49969681  0.54453232
   0.44088562  0.61615482  0.51743322
Direct configuration=    19
   0.47369886  0.51367115  0.44175483
   0.40103115  0.39334365  0.48499923
   0.54535464  0.61463480  0.60134077
   0.47018758  0.39384566  0.36250538
   0.54198610  0.42032528  0.55994197
   0.66091519  0.49035375  0.54684866
   0.45862250  0.54450686  0.56707264
   0.57618951  0.50193651  0.47163408
   0.54663189  0.32682506  0.53013849
   0.34125177  0.43376498  0.41718197
   0.46886541  0.33265620  0.53592158
   0.53146117  0.52073956  0.55662189
   0.54391910  0.61788649  0.44693731
   0.33705460  0.47492524  0.49454674
   0.58832097  0.57599980  0.50525623
   0.47112681  0.61899813  0.43614887
   0.39466009  0.50006128  0.54468865
   0.44203868  0.61534511  0.51711351
Direct configuration=    20
   0.47282387  0.51416033  0.44406801
   0.40262084  0.39195720  0.48684792
   0.54334477  0.61524089  0.60074999
   0.47041949  0.39386305  0.36294550
   0.54185212  0.42189633  0.55709228
   0.66008778  0.49021985  0.54671411
   0.45548705  0.54461769  0.56807113
   0.57518064  0.50167174  0.47293117
   0.54551863  0.32616296  0.53036145
   0.34173044  0.43472659  0.41832950
   0.46986284  0.33242381  0.53551915
   0.53379224  0.52084885  0.55449741
   0.54248872  0.61611754  0.44923994
   0.33892076  0.47569528  0.49260814
   0.58791316  0.57553425  0.50318392
   0.47199437  0.62114956  0.43710954
   0.39378259  0.50128763  0.54483985
   0.44549569  0.61224593  0.51554378
Direct configuration=    21
   0.47221075  0.51450312  0.44568889
   0.40373477  0.39098569  0.48814333
   0.54193642  0.61566559  0.60033601
   0.47058199  0.39387524  0.36325391
   0.54175825  0.42299719  0.55509545
   0.65950800  0.49012603  0.54661983
   0.45328997  0.54469534  0.56877079
   0.57447371  0.50148622  0.47384007
   0.54473855  0.32569901  0.53051768
   0.34206585  0.43540042  0.41913360
   0.47056176  0.33226097  0.53523716
   0.53542566  0.52092544  0.55300875
   0.54148642  0.61487800  0.45085344
   0.34022842  0.47623486  0.49124973
   0.58762740  0.57520804  0.50173180
   0.47260228  0.62265712  0.43778271
   0.39316771  0.50214695  0.54494580
   0.44791809  0.61007427  0.51444384
Direct configuration=    22
   0.47121083  0.51524348  0.44829860
   0.40382418  0.39033602  0.48885634
   0.54017000  0.61651107  0.59988520
   0.47065787  0.39393964  0.36390890
   0.54138527  0.42187341  0.55291869
   0.65944063  0.49015475  0.54676850
   0.45367163  0.54507972  0.56871439
   0.57373120  0.50021219  0.47361808
   0.54435165  0.32512174  0.53055378
   0.34279252  0.43599309  0.41938546
   0.47232580  0.33136720  0.53583016
   0.53518887  0.52238929  0.55239280
   0.54417376  0.61423860  0.45247566
   0.34169420  0.47740869  0.48998164
   0.58768380  0.57438330  0.50128060
   0.46887829  0.62501317  0.43634555
   0.39212179  0.50276987  0.54483677
   0.45001370  0.60778426  0.51460170
Direct configuration=    23
   0.47130594  0.51517306  0.44805037
   0.40381568  0.39039782  0.48878852
   0.54033802  0.61643065  0.59992808
   0.47065065  0.39393352  0.36384660
   0.54142075  0.42198030  0.55312574
   0.65944704  0.49015202  0.54675436
   0.45363533  0.54504316  0.56871976
   0.57380182  0.50033338  0.47363919
   0.54438845  0.32517665  0.53055035
   0.34272340  0.43593672  0.41936150
   0.47215801  0.33145222  0.53577375
   0.53521139  0.52225005  0.55245139
   0.54391814  0.61429941  0.45232136
   0.34155477  0.47729704  0.49010226
   0.58767843  0.57446175  0.50132352
   0.46923251  0.62478906  0.43648225
   0.39222128  0.50271062  0.54484714
   0.44981437  0.60800209  0.51458668
Direct configuration=    24
   0.47005297  0.51587629  0.44994168
   0.40337400  0.38996668  0.48920055
   0.53866978  0.61749130  0.59953109
   0.47068287  0.39408794  0.36467930
   0.54098978  0.42061258  0.55111657
   0.65957173  0.49022143  0.54699770
   0.45496186  0.54478164  0.56870732
   0.57324018  0.49875814  0.47297953
   0.54570589  0.32424732  0.53037347
   0.34374017  0.43611921  0.41895376
   0.47260794  0.33055993  0.53673229
   0.53409831  0.52336095  0.55256831
   0.54271596  0.61551679  0.45170181
   0.34259380  0.47862543  0.48903402
   0.58882730  0.57263614  0.50243467
   0.46836264  0.62621461  0.43540876
   0.39194544  0.50361237  0.54523716
   0.45117537  0.60713073  0.51505482
Direct configuration=    25
   0.46944437  0.51621788  0.45086034
   0.40315947  0.38975727  0.48940069
   0.53785947  0.61800649  0.59933826
   0.47069851  0.39416294  0.36508376
   0.54078045  0.41994824  0.55014067
   0.65963229  0.49025515  0.54711590
   0.45560619  0.54465462  0.56870128
   0.57296738  0.49799300  0.47265911
   0.54634581  0.32379592  0.53028755
   0.34423404  0.43620785  0.41875571
   0.47282649  0.33012653  0.53719788
   0.53355766  0.52390055  0.55262510
   0.54213202  0.61610810  0.45140088
   0.34309849  0.47927067  0.48851515
   0.58938534  0.57174939  0.50297439
   0.46794013  0.62690703  0.43488733
   0.39181146  0.50405037  0.54542660
   0.45183644  0.60670748  0.51528221
Direct configuration=    26
   0.46802705  0.51645016  0.45138283
   0.40259429  0.38927332  0.49003141
   0.53620578  0.61945409  0.59880574
   0.47075123  0.39446547  0.36622123
   0.54029186  0.41959724  0.54805419
   0.65975129  0.49026181  0.54742642
   0.45629502  0.54353019  0.56970229
   0.57213674  0.49657615  0.47247625
   0.54754576  0.32212154  0.52998342
   0.34562928  0.43628583  0.41804093
   0.47346421  0.32912485  0.53815941
   0.53306311  0.52315054  0.55275536
   0.54098101  0.61651191  0.45189324
   0.34422036  0.48068548  0.48727416
   0.58886833  0.57131027  0.50232262
   0.46818555  0.62756143  0.43529171
   0.39229890  0.50547131  0.54631040
   0.45300622  0.60798788  0.51452120
Direct configuration=    27
   0.46604326  0.51677527  0.45211414
   0.40180323  0.38859595  0.49091423
   0.53389115  0.62148028  0.59806038
   0.47082501  0.39488892  0.36781333
   0.53960799  0.41910595  0.54513379
   0.65991785  0.49027113  0.54786105
   0.45725914  0.54195635  0.57110338
   0.57097413  0.49459301  0.47222030
   0.54922531  0.31977795  0.52955774
   0.34758217  0.43639498  0.41704046
   0.47435682  0.32772283  0.53950524
   0.53237089  0.52210078  0.55293767
   0.53936998  0.61707711  0.45258240
   0.34579062  0.48266575  0.48553719
   0.58814468  0.57069565  0.50141035
   0.46852906  0.62847737  0.43585769
   0.39298116  0.50746018  0.54754744
   0.45464354  0.60978003  0.51345603
Direct configuration=    28
   0.46503777  0.51684654  0.45208779
   0.40139083  0.38819319  0.49171395
   0.53269285  0.62241685  0.59746348
   0.47091038  0.39520762  0.36884340
   0.53922581  0.41850808  0.54353131
   0.65988669  0.49029088  0.54804827
   0.45772635  0.54185912  0.57175351
   0.57032452  0.49399712  0.47234759
   0.54958817  0.31865603  0.52943867
   0.34885546  0.43658729  0.41672162
   0.47517444  0.32695746  0.53995465
   0.53261372  0.52136102  0.55303252
   0.53938867  0.61698395  0.45342618
   0.34717313  0.48369385  0.48475508
   0.58702559  0.57037071  0.50037538
   0.46828882  0.62918998  0.43550370
   0.39270816  0.50821302  0.54765236
   0.45530462  0.61048680  0.51400335
Direct configuration=    29
   0.46276447  0.51700768  0.45202821
   0.40045845  0.38728257  0.49352204
   0.52998362  0.62453434  0.59611395
   0.47110338  0.39592818  0.37117228
   0.53836174  0.41715635  0.53990828
   0.65981625  0.49033554  0.54847155
   0.45878266  0.54163927  0.57322340
   0.56885581  0.49264987  0.47263539
   0.55040857  0.31611949  0.52916947
   0.35173425  0.43702206  0.41600076
   0.47702300  0.32522704  0.54097072
   0.53316274  0.51968849  0.55324696
   0.53943093  0.61677333  0.45533387
   0.35029884  0.48601827  0.48298680
   0.58449543  0.56963604  0.49803541
   0.46774565  0.63080113  0.43470335
   0.39209093  0.50991512  0.54788959
   0.45679926  0.61208472  0.51524077
Direct configuration=    30
   0.46210162  0.51754490  0.45182414
   0.40009572  0.38691494  0.49482873
   0.52926871  0.62503553  0.59549991
   0.47125366  0.39639382  0.37244283
   0.53799453  0.41578141  0.53839135
   0.65948216  0.49036254  0.54844737
   0.45860197  0.54208113  0.57327796
   0.56852069  0.49257677  0.47284105
   0.55065032  0.31531189  0.52913665
   0.35349571  0.43737141  0.41632187
   0.47732536  0.32462745  0.54089962
   0.53373856  0.51932785  0.55364214
   0.53856255  0.61745660  0.45530797
   0.35193622  0.48649965  0.48182881
   0.58357577  0.56823302  0.49741348
   0.46774095  0.63131862  0.43470693
   0.39200659  0.51066090  0.54793245
   0.45696491  0.61232105  0.51590956
Direct configuration=    31
   0.46098619  0.51844891  0.45148073
   0.39948534  0.38629631  0.49702756
   0.52806569  0.62587893  0.59446662
   0.47150654  0.39717739  0.37458086
   0.53737660  0.41346770  0.53583871
   0.65891997  0.49040797  0.54840667
   0.45829791  0.54282469  0.57336977
   0.56795676  0.49245376  0.47318713
   0.55105712  0.31395290  0.52908143
   0.35645984  0.43795928  0.41686221
   0.47783415  0.32361850  0.54077998
   0.53470751  0.51872097  0.55430713
   0.53710126  0.61860639  0.45526440
   0.35469155  0.48730969  0.47988019
   0.58202818  0.56587207  0.49636692
   0.46773304  0.63218944  0.43471295
   0.39186466  0.51191587  0.54800458
   0.45724366  0.61271873  0.51703496
Direct configuration=    32
   0.46078867  0.51933848  0.45127282
   0.39916039  0.38602016  0.49861482
   0.52790343  0.62608728  0.59409435
   0.47166116  0.39771671  0.37592515
   0.53711945  0.41239715  0.53441397
   0.65848666  0.49035889  0.54831585
   0.45816639  0.54331679  0.57318907
   0.56766105  0.49169998  0.47314572
   0.55127223  0.31319208  0.52906772
   0.35856235  0.43792507  0.41700108
   0.47770855  0.32295070  0.54039208
   0.53483978  0.51838699  0.55513055
   0.53686967  0.61907213  0.45535127
   0.35618831  0.48783360  0.47913515
   0.58101350  0.56541622  0.49558806
   0.46709310  0.63264045  0.43512153
   0.39188155  0.51260872  0.54794691
   0.45693976  0.61285809  0.51694669
Direct configuration=    33
   0.46019610  0.52200717  0.45064907
   0.39818555  0.38519171  0.50337658
   0.52741662  0.62671235  0.59297752
   0.47212501  0.39933466  0.37995805
   0.53634800  0.40918549  0.53013976
   0.65718674  0.49021167  0.54804340
   0.45777184  0.54479309  0.57264696
   0.56677389  0.48943865  0.47302150
   0.55191757  0.31090962  0.52902660
   0.36486988  0.43782246  0.41741770
   0.47733177  0.32094730  0.53922839
   0.53523657  0.51738503  0.55760080
   0.53617489  0.62046935  0.45561190
   0.36067859  0.48940533  0.47690003
   0.57796944  0.56404866  0.49325150
   0.46517328  0.63399349  0.43634726
   0.39193222  0.51468729  0.54777393
   0.45602804  0.61327618  0.51668186
Direct configuration=    34
   0.45901096  0.52734455  0.44940159
   0.39623585  0.38353481  0.51290010
   0.52644301  0.62796249  0.59074386
   0.47305272  0.40257055  0.38802385
   0.53480510  0.40276219  0.52159134
   0.65458689  0.48991721  0.54749848
   0.45698273  0.54774569  0.57156275
   0.56499959  0.48491599  0.47277306
   0.55320823  0.30634471  0.52894437
   0.37748493  0.43761723  0.41825093
   0.47657820  0.31694050  0.53690099
   0.53603014  0.51538110  0.56254129
   0.53478532  0.62326379  0.45613315
   0.36965916  0.49254880  0.47242979
   0.57188133  0.56131354  0.48857838
   0.46133365  0.63669956  0.43879871
   0.39203356  0.51884443  0.54742796
   0.45420461  0.61411235  0.51615221
Direct configuration=    35
   0.45971996  0.52415152  0.45014788
   0.39740223  0.38452603  0.50720276
   0.52702546  0.62721461  0.59208012
   0.47249773  0.40063471  0.38319858
   0.53572812  0.40660486  0.52670534
   0.65614222  0.49009337  0.54782447
   0.45745481  0.54597933  0.57221137
   0.56606105  0.48762162  0.47292169
   0.55243610  0.30907562  0.52899356
   0.36993812  0.43774000  0.41775246
   0.47702901  0.31933753  0.53829333
   0.53555539  0.51657993  0.55958569
   0.53561661  0.62159205  0.45582132
   0.36428664  0.49066825  0.47510406
   0.57552348  0.56294979  0.49137403
   0.46363067  0.63508068  0.43733216
   0.39197293  0.51635747  0.54763493
   0.45529546  0.61361212  0.51646907
Direct configuration=    36
   0.46077618  0.52543737  0.44931613
   0.39679888  0.38473061  0.50999850
   0.52747558  0.62712852  0.59185139
   0.47244535  0.40166539  0.38538945
   0.53574191  0.40604282  0.52490497
   0.65528300  0.48985229  0.54763306
   0.45781441  0.54672600  0.57230897
   0.56572354  0.48608262  0.47286615
   0.55208427  0.30784551  0.52904014
   0.37403506  0.43673598  0.41743636
   0.47677925  0.31785505  0.53711193
   0.53505886  0.51611474  0.56047729
   0.53483125  0.62223677  0.45567312
   0.36546684  0.49118909  0.47481389
   0.57392380  0.56303625  0.49020595
   0.46297813  0.63596732  0.43763891
   0.39190620  0.51716028  0.54739100
   0.45419348  0.61401289  0.51659559
Direct configuration=    37
   0.46251106  0.52754943  0.44794996
   0.39580785  0.38506664  0.51459060
   0.52821492  0.62698711  0.59147568
   0.47235932  0.40335830  0.38898802
   0.53576455  0.40511965  0.52194779
   0.65387170  0.48945631  0.54731867
   0.45840507  0.54795243  0.57246929
   0.56516917  0.48355477  0.47277494
   0.55150638  0.30582501  0.52911664
   0.38076443  0.43508685  0.41691717
   0.47636901  0.31542003  0.53517145
   0.53424329  0.51535064  0.56194176
   0.53354126  0.62329576  0.45542971
   0.36740537  0.49204457  0.47433726
   0.57129627  0.56317826  0.48828736
   0.46190632  0.63742366  0.43814276
   0.39179658  0.51847893  0.54699034
   0.45238345  0.61467116  0.51680340
Direct configuration=    38
   0.46436942  0.52810302  0.44682250
   0.39574337  0.38614551  0.51696666
   0.52942444  0.62656641  0.59141485
   0.47254098  0.40404212  0.39110576
   0.53605181  0.40426984  0.52160654
   0.65276490  0.48908040  0.54705031
   0.45839756  0.54838369  0.57283962
   0.56551959  0.48405817  0.47264363
   0.55064170  0.30498916  0.52906805
   0.38456777  0.43463805  0.41767458
   0.47546604  0.31414415  0.53340746
   0.53332146  0.51512279  0.56152151
   0.53242916  0.62414119  0.45493748
   0.36733525  0.49056768  0.47363102
   0.57007837  0.56246018  0.48747331
   0.46155281  0.63867012  0.43804699
   0.39224838  0.51918577  0.54690110
   0.45086299  0.61525124  0.51754143
Direct configuration=    39
   0.46556991  0.52846064  0.44609417
   0.39570172  0.38684246  0.51850158
   0.53020579  0.62629464  0.59137556
   0.47265833  0.40448386  0.39247382
   0.53623738  0.40372087  0.52138610
   0.65204991  0.48883756  0.54687694
   0.45839271  0.54866228  0.57307885
   0.56574596  0.48438336  0.47255880
   0.55008313  0.30444920  0.52903666
   0.38702471  0.43434813  0.41816387
   0.47488272  0.31331994  0.53226793
   0.53272596  0.51497560  0.56125003
   0.53171075  0.62468734  0.45461950
   0.36728995  0.48961362  0.47317479
   0.56929162  0.56199631  0.48694744
   0.46132444  0.63947534  0.43798512
   0.39254024  0.51964238  0.54684346
   0.44988077  0.61562598  0.51801820
Direct configuration=    40
   0.46613474  0.52821780  0.44577926
   0.39658698  0.38803963  0.51929459
   0.53146741  0.62580721  0.59124098
   0.47441744  0.40367638  0.39324946
   0.53681887  0.40337340  0.52238046
   0.65129567  0.48853522  0.54677424
   0.45810508  0.54888714  0.57344268
   0.56634310  0.48519317  0.47246573
   0.54916174  0.30428237  0.52883364
   0.38743616  0.43489499  0.41958415
   0.47365517  0.31301134  0.53076457
   0.53198530  0.51484902  0.55986685
   0.53183689  0.62473599  0.45476776
   0.36706391  0.48822754  0.47373290
   0.56888606  0.56233814  0.48646300
   0.46059885  0.64025372  0.43834776
   0.39261732  0.51947823  0.54551299
   0.44890531  0.61601819  0.51815179
Direct configuration=    41
   0.46706945  0.52781594  0.44525814
   0.39805192  0.39002075  0.52060687
   0.53355518  0.62500060  0.59101828
   0.47732846  0.40234014  0.39453302
   0.53778113  0.40279840  0.52402596
   0.65004754  0.48803489  0.54660428
   0.45762911  0.54925924  0.57404476
   0.56733125  0.48653326  0.47231172
   0.54763701  0.30400630  0.52849768
   0.38811704  0.43579996  0.42193447
   0.47162379  0.31250066  0.52827677
   0.53075964  0.51463955  0.55757792
   0.53204562  0.62481650  0.45501311
   0.36668986  0.48593382  0.47465648
   0.56821492  0.56290382  0.48566133
   0.45939812  0.64154182  0.43894787
   0.39274488  0.51920660  0.54331129
   0.44729107  0.61666724  0.51837286
Direct configuration=    42
   0.46700301  0.52755817  0.44516644
   0.39900228  0.39102626  0.52142791
   0.53461382  0.62449010  0.59073901
   0.47878492  0.40135693  0.39519457
   0.53851676  0.40315730  0.52508166
   0.64955260  0.48780583  0.54665641
   0.45708949  0.54948952  0.57401063
   0.56777793  0.48654627  0.47221860
   0.54649329  0.30385607  0.52820511
   0.38890011  0.43529811  0.42201908
   0.47081496  0.31236438  0.52678091
   0.53000545  0.51447483  0.55620310
   0.53138730  0.62530520  0.45497913
   0.36594813  0.48580722  0.47565979
   0.56836966  0.56328786  0.48548954