       N       E                     dE             d eps       ncg     rms          rms(c)
DAV:   1     0.446629287390E+03    0.44663E+03   -0.17077E+04   128   0.551E+02
DAV:   2     0.805647058008E+02   -0.36606E+03   -0.35599E+03   160   0.168E+02
DAV:   3    -0.669321647205E+02   -0.14750E+03   -0.14412E+03   152   0.869E+01
DAV:   4    -0.914946327247E+02   -0.24562E+02   -0.23791E+02   128   0.365E+01
DAV:   5    -0.943267076235E+02   -0.28321E+01   -0.25863E+01   152   0.983E+00    0.374E+01
DAV:   6    -0.845681318297E+02    0.97586E+01   -0.12168E+03   160   0.690E+01    0.657E+01
DAV:   7    -0.439005088597E+02    0.40668E+02   -0.54229E+02   152   0.112E+02    0.260E+01
DAV:   8    -0.306133915810E+02    0.13287E+02   -0.16514E+02   144   0.271E+01    0.150E+01
DAV:   9    -0.275304928996E+02    0.30829E+01   -0.30622E+01   168   0.120E+01    0.148E+01
DAV:  10    -0.285916703747E+02   -0.10612E+01   -0.27062E+01   144   0.897E+00    0.267E+01
DAV:  11    -0.268518935538E+02    0.17398E+01   -0.39252E+01   144   0.777E+00    0.111E+01
DAV:  12    -0.259922489996E+02    0.85964E+00   -0.12584E+01   144   0.523E+00    0.144E+01
DAV:  13    -0.254536858257E+02    0.53856E+00   -0.89048E+00   136   0.390E+00    0.589E+00
DAV:  14    -0.253119530209E+02    0.14173E+00   -0.20830E+00   160   0.341E+00    0.584E+00
DAV:  15    -0.251888086907E+02    0.12314E+00   -0.10013E+00   144   0.183E+00    0.235E+00
DAV:  16    -0.252460117270E+02   -0.57203E-01   -0.28541E-01   160   0.140E+00    0.200E+00
DAV:  17    -0.252543747878E+02   -0.83631E-02   -0.51495E-01   144   0.102E+00    0.231E+00
DAV:  18    -0.252318276688E+02    0.22547E-01   -0.21352E-01   152   0.695E-01    0.162E+00
DAV:  19    -0.252311613184E+02    0.66635E-03   -0.52838E-02   136   0.393E-01    0.911E-01
DAV:  20    -0.252431035262E+02   -0.11942E-01   -0.24942E-02   152   0.312E-01    0.899E-01
DAV:  21    -0.252437225682E+02   -0.61904E-03   -0.11086E-02   144   0.222E-01    0.445E-01
DAV:  22    -0.252475570954E+02   -0.38345E-02   -0.39175E-03   144   0.138E-01    0.195E-01
DAV:  23    -0.252514862018E+02   -0.39291E-02   -0.26943E-03   112   0.100E-01    0.323E-01
DAV:  24    -0.252560394926E+02   -0.45533E-02   -0.15078E-02   136   0.177E-01    0.669E-01
DAV:  25    -0.252548675757E+02    0.11719E-02   -0.79767E-04    96   0.878E-02    0.513E-01
DAV:  26    -0.252559128444E+02   -0.10453E-02   -0.10693E-03    96   0.592E-02    0.301E-01
DAV:  27    -0.252581631516E+02   -0.22503E-02   -0.62131E-04    96   0.578E-02    0.180E-01
DAV:  28    -0.252592607434E+02   -0.10976E-02   -0.19722E-04    88   0.356E-02    0.144E-01
DAV:  29    -0.252600243282E+02   -0.76358E-03   -0.12968E-04    72   0.281E-02    0.919E-02
DAV:  30    -0.252607150687E+02   -0.69074E-03   -0.15498E-04    88   0.280E-02    0.829E-02
DAV:  31    -0.252610862652E+02   -0.37120E-03   -0.68442E-05    72   0.218E-02    0.683E-02
DAV:  32    -0.252614815183E+02   -0.39525E-03   -0.49363E-05    72   0.180E-02    0.397E-02
DAV:  33    -0.252616890553E+02   -0.20754E-03   -0.35245E-05    72   0.141E-02    0.288E-02
DAV:  34    -0.252617516468E+02   -0.62592E-04   -0.15532E-05    72   0.102E-02
   1 F= -.25261752E+02 E0= -.25152954E+02  d E =-.252618E+02
       N       E                     dE             d eps       ncg     rms          rms(c)
DAV:   1    -0.356857957171E+02   -0.10424E+02   -0.35994E+03   104   0.233E+02    0.403E+01
DAV:   2    -0.126904936681E+03   -0.91219E+02   -0.20619E+03   160   0.150E+02    0.550E+01
DAV:   3    -0.862688989437E+02    0.40636E+02   -0.46710E+02   136   0.900E+01    0.356E+01
DAV:   4    -0.509276282368E+02    0.35341E+02   -0.44351E+01   136   0.260E+01    0.283E+01
DAV:   5    -0.386593877634E+02    0.12268E+02   -0.51063E+01   160   0.150E+01    0.212E+01
DAV:   6    -0.396602093552E+02   -0.10008E+01   -0.52037E+01   152   0.130E+01    0.381E+01
DAV:   7    -0.336030272646E+02    0.60572E+01   -0.74487E+01   160   0.273E+01    0.150E+01
DAV:   8    -0.372011982397E+02   -0.35982E+01   -0.37372E+01   136   0.938E+00    0.287E+01
DAV:   9    -0.320372767557E+02    0.51639E+01   -0.31843E+01   144   0.199E+01    0.133E+01
DAV:  10    -0.346885834611E+02   -0.26513E+01   -0.11556E+01   144   0.868E+00    0.164E+01
DAV:  11    -0.319717396478E+02    0.27168E+01   -0.18748E+01   136   0.715E+00    0.127E+01
DAV:  12    -0.316610914751E+02    0.31065E+00   -0.11132E+00   152   0.263E+00    0.119E+01
DAV:  13    -0.312527872643E+02    0.40830E+00   -0.18624E-01   152   0.115E+00    0.114E+01
DAV:  14    -0.305328793436E+02    0.71991E+00   -0.10493E+00   168   0.169E+00    0.969E+00
DAV:  15    -0.302884646472E+02    0.24441E+00   -0.12230E-01   152   0.859E-01    0.907E+00
DAV:  16    -0.302884876371E+02   -0.22990E-04   -0.98407E-03   160   0.270E-01    0.908E+00
DAV:  17    -0.298767333986E+02    0.41175E+00   -0.19752E-01   136   0.139E+00    0.802E+00
DAV:  18    -0.291554586463E+02    0.72127E+00   -0.14458E+00   144   0.331E+00    0.425E+00
DAV:  19    -0.291631760508E+02   -0.77174E-02   -0.17642E-01   136   0.106E+00    0.404E+00
DAV:  20    -0.291744375707E+02   -0.11262E-01   -0.10255E-02   160   0.257E-01    0.414E+00
DAV:  21    -0.291395604315E+02    0.34877E-01   -0.11757E-01   144   0.777E-01    0.318E+00
DAV:  22    -0.291236189865E+02    0.15941E-01   -0.27560E-02   168   0.345E-01    0.287E+00
DAV:  23    -0.290976494193E+02    0.25970E-01   -0.71373E-02   152   0.733E-01    0.327E+00
DAV:  24    -0.290460510998E+02    0.51598E-01   -0.55520E-02   144   0.792E-01    0.302E+00
DAV:  25    -0.290430453097E+02    0.30058E-02   -0.57172E-02   152   0.392E-01    0.284E+00
DAV:  26    -0.290858672300E+02   -0.42822E-01   -0.16518E-01   144   0.550E-01    0.443E+00
DAV:  27    -0.290759927597E+02    0.98745E-02   -0.32800E-03   128   0.194E-01    0.440E+00
DAV:  28    -0.291242422558E+02   -0.48249E-01   -0.74615E-02   144   0.351E-01    0.611E+00
DAV:  29    -0.290685864605E+02    0.55656E-01   -0.97959E-02   136   0.526E-01    0.470E+00
DAV:  30    -0.289865010235E+02    0.82085E-01   -0.33577E-01   144   0.765E-01    0.292E+00
DAV:  31    -0.289375341832E+02    0.48967E-01   -0.18115E-01   160   0.860E-01    0.396E+00
DAV:  32    -0.289050125320E+02    0.32522E-01   -0.45168E-02   144   0.512E-01    0.353E+00
DAV:  33    -0.288791172042E+02    0.25895E-01   -0.17210E-02   144   0.335E-01    0.361E+00
DAV:  34    -0.288455666392E+02    0.33551E-01   -0.15311E-02   136   0.382E-01    0.370E+00
DAV:  35    -0.288143718701E+02    0.31195E-01   -0.30946E-02   152   0.423E-01    0.299E+00
DAV:  36    -0.288131611770E+02    0.12107E-02   -0.20277E-03   152   0.138E-01    0.294E+00
DAV:  37    -0.288139415415E+02   -0.78036E-03   -0.10844E-04    96   0.289E-02    0.294E+00
DAV:  38    -0.288142833758E+02   -0.34183E-03   -0.72579E-05    72   0.297E-02    0.295E+00
DAV:  39    -0.287911290828E+02    0.23154E-01   -0.15430E-02   152   0.451E-01    0.257E+00
DAV:  40    -0.287642293777E+02    0.26900E-01   -0.14890E-02   152   0.466E-01    0.240E+00
DAV:  41    -0.287620877033E+02    0.21417E-02   -0.21191E-03   152   0.151E-01    0.238E+00
DAV:  42    -0.287633303474E+02   -0.12426E-02   -0.10854E-04    88   0.381E-02    0.238E+00
DAV:  43    -0.287642375610E+02   -0.90721E-03   -0.37269E-05    72   0.243E-02    0.238E+00
DAV:  44    -0.287629665260E+02    0.12710E-02   -0.53698E-05    72   0.219E-02    0.236E+00
DAV:  45    -0.287577189400E+02    0.52476E-02   -0.73320E-04   128   0.874E-02    0.232E+00
DAV:  46    -0.287646881726E+02   -0.69692E-02   -0.55992E-04   112   0.995E-02    0.231E+00
DAV:  47    -0.287636940880E+02    0.99408E-03   -0.59470E-02   136   0.393E-01    0.312E+00
DAV:  48    -0.287562545470E+02    0.74395E-02   -0.52211E-03   144   0.203E-01    0.289E+00
DAV:  49    -0.287534791913E+02    0.27754E-02   -0.18383E-03   152   0.155E-01    0.278E+00
DAV:  50    -0.287501335661E+02    0.33456E-02   -0.18847E-03   136   0.107E-01    0.261E+00
DAV:  51    -0.287246815957E+02    0.25452E-01   -0.62983E-03   160   0.295E-01    0.248E+00
DAV:  52    -0.291004408537E+02   -0.37576E+00   -0.65066E-01   160   0.296E+00    0.193E+01
DAV:  53    -0.287037661194E+02    0.39667E+00   -0.70797E-01   120   0.134E+00    0.132E+01
DAV:  54    -0.286145200022E+02    0.89246E-01   -0.37333E-01   136   0.678E-01    0.859E+00
DAV:  55    -0.286107224435E+02    0.37976E-02   -0.13766E+00   152   0.112E+00    0.237E+00
DAV:  56    -0.286446489902E+02   -0.33927E-01   -0.27589E-02   152   0.565E-01    0.245E+00
DAV:  57    -0.286414611161E+02    0.31879E-02   -0.14260E-02   160   0.393E-01    0.287E+00
DAV:  58    -0.286290309036E+02    0.12430E-01   -0.15372E-03   112   0.148E-01    0.282E+00
DAV:  59    -0.286297519652E+02   -0.72106E-03   -0.22153E-04   120   0.550E-02    0.279E+00
DAV:  60    -0.286227960192E+02    0.69559E-02   -0.24548E-03   136   0.143E-01
   2 F= -.28622796E+02 E0= -.28557927E+02  d E =-.336104E+01
       N       E                     dE             d eps       ncg     rms          rms(c)
DAV:   1    -0.481302201133E+02   -0.19500E+02   -0.56066E+02   112   0.107E+02    0.194E+01
DAV:   2    -0.102004288008E+03   -0.53874E+02   -0.45606E+02   152   0.523E+01    0.522E+01
DAV:   3    -0.549308437755E+02    0.47073E+02   -0.15732E+02   136   0.564E+01    0.183E+01
DAV:   4    -0.485328929209E+02    0.63980E+01   -0.26321E+01   144   0.125E+01    0.131E+01
DAV:   5    -0.471421505771E+02    0.13907E+01   -0.14741E+01   160   0.513E+00    0.129E+01
DAV:   6    -0.446842512314E+02    0.24579E+01   -0.13916E+01   152   0.636E+00    0.707E+00
DAV:   7    -0.442886529318E+02    0.39560E+00   -0.40697E+00   160   0.475E+00    0.409E+00
DAV:   8    -0.451407202106E+02   -0.85207E+00   -0.57553E+00   152   0.541E+00    0.849E+00
DAV:   9    -0.445285248275E+02    0.61220E+00   -0.35794E+00   160   0.428E+00    0.906E+00
DAV:  10    -0.443280084158E+02    0.20052E+00   -0.48883E+00   144   0.355E+00    0.379E+00
DAV:  11    -0.443355401329E+02   -0.75317E-02   -0.69047E-01   152   0.187E+00    0.221E+00
DAV:  12    -0.443372542139E+02   -0.17141E-02   -0.62053E-01   160   0.114E+00    0.213E+00
DAV:  13    -0.443264746516E+02    0.10780E-01   -0.63534E-02   152   0.611E-01    0.484E-01
DAV:  14    -0.443369309172E+02   -0.10456E-01   -0.22673E-02   160   0.314E-01    0.579E-01
DAV:  15    -0.443380624466E+02   -0.11315E-02   -0.46261E-03   152   0.144E-01    0.379E-01
DAV:  16    -0.443437788114E+02   -0.57164E-02   -0.16224E-02   152   0.195E-01    0.521E-01
DAV:  17    -0.443438022868E+02   -0.23475E-04   -0.13871E-02   160   0.188E-01    0.382E-01
DAV:  18    -0.443449418529E+02   -0.11396E-02   -0.90932E-04   112   0.721E-02    0.309E-01
DAV:  19    -0.443461417028E+02   -0.11998E-02   -0.93946E-04   120   0.717E-02    0.260E-01
DAV:  20    -0.443464659443E+02   -0.32424E-03   -0.39116E-03   144   0.106E-01    0.108E-01
DAV:  21    -0.443475366148E+02   -0.10707E-02   -0.22799E-04    96   0.600E-02    0.652E-02
DAV:  22    -0.443478235182E+02   -0.28690E-03   -0.54479E-04    88   0.442E-02    0.969E-02
DAV:  23    -0.443478798935E+02   -0.56375E-04   -0.18350E-04    88   0.330E-02
   3 F= -.44347880E+02 E0= -.44281489E+02  d E =-.190861E+02
       N       E                     dE             d eps       ncg     rms          rms(c)
DAV:   1    -0.250744192313E+02    0.19273E+02   -0.24903E+03   104   0.237E+02    0.223E+01
DAV:   2    -0.112183147743E+03   -0.87109E+02   -0.95573E+02   152   0.810E+01    0.536E+01
DAV:   3    -0.540409762396E+02    0.58142E+02   -0.10588E+02   120   0.506E+01    0.218E+01
DAV:   4    -0.458542819578E+02    0.81867E+01   -0.30592E+01   160   0.174E+01    0.362E+01
DAV:   5    -0.423345441284E+02    0.35197E+01   -0.12717E+02   160   0.173E+01    0.174E+01
DAV:   6    -0.428720918191E+02   -0.53755E+00   -0.19682E+01   160   0.871E+00    0.305E+01
DAV:   7    -0.402685313616E+02    0.26036E+01   -0.31089E+01   144   0.133E+01    0.139E+01
DAV:   8    -0.379322925806E+02    0.23362E+01   -0.10896E+01   160   0.621E+00    0.127E+01
DAV:   9    -0.363221234346E+02    0.16102E+01   -0.65744E+00   152   0.431E+00    0.935E+00
DAV:  10    -0.357311084105E+02    0.59102E+00   -0.63766E+00   152   0.415E+00    0.571E+00
DAV:  11    -0.356582405681E+02    0.72868E-01   -0.18263E+00   152   0.192E+00    0.102E+01
DAV:  12    -0.356656869003E+02   -0.74463E-02   -0.37064E+00   152   0.185E+00    0.730E+00
DAV:  13    -0.355248420294E+02    0.14084E+00   -0.73041E-01   152   0.143E+00    0.300E+00
DAV:  14    -0.360815785702E+02   -0.55674E+00   -0.35470E+00   152   0.219E+00    0.159E+01
DAV:  15    -0.356721419172E+02    0.40944E+00   -0.14433E+00   136   0.124E+00    0.681E+00
DAV:  16    -0.356419729619E+02    0.30169E-01   -0.16927E-01   152   0.765E-01    0.501E+00
DAV:  17    -0.356176911205E+02    0.24282E-01   -0.41019E-01   152   0.815E-01    0.285E+00
DAV:  18    -0.356328078089E+02   -0.15117E-01   -0.13002E-01   144   0.494E-01    0.280E+00
DAV:  19    -0.356213769776E+02    0.11431E-01   -0.11289E-02   152   0.279E-01    0.243E+00
DAV:  20    -0.356190683358E+02    0.23086E-02   -0.83218E-03   152   0.262E-01    0.211E+00
DAV:  21    -0.356147699451E+02    0.42984E-02   -0.72426E-03   144   0.187E-01    0.158E+00
DAV:  22    -0.356166841133E+02   -0.19142E-02   -0.97342E-03   144   0.127E-01    0.125E+00
DAV:  23    -0.356205680106E+02   -0.38839E-02   -0.11946E-03   128   0.121E-01    0.113E+00
DAV:  24    -0.356192324152E+02    0.13356E-02   -0.54578E-03   144   0.164E-01    0.603E-01
DAV:  25    -0.356203643073E+02   -0.11319E-02   -0.47507E-04    96   0.935E-02    0.584E-01
DAV:  26    -0.356203422476E+02    0.22060E-04   -0.15394E-03   128   0.933E-02    0.387E-01
DAV:  27    -0.356207377638E+02   -0.39552E-03   -0.21584E-04    72   0.559E-02    0.361E-01
DAV:  28    -0.356159490468E+02    0.47887E-02   -0.50216E-03   120   0.131E-01    0.333E-01
DAV:  29    -0.356171441708E+02   -0.11951E-02   -0.14732E-03   120   0.768E-02    0.387E-01
DAV:  30    -0.356183294702E+02   -0.11853E-02   -0.80680E-04   104   0.444E-02    0.356E-01
DAV:  31    -0.356223249764E+02   -0.39955E-02   -0.50491E-03   104   0.116E-01    0.466E-01
DAV:  32    -0.356198227584E+02    0.25022E-02   -0.11430E-03    96   0.865E-02    0.407E-01
DAV:  33    -0.356209664400E+02   -0.11437E-02   -0.23075E-02   104   0.201E-01    0.567E-01
DAV:  34    -0.356258005318E+02   -0.48341E-02   -0.53460E-03   104   0.134E-01    0.511E-01
DAV:  35    -0.356260555278E+02   -0.25500E-03   -0.17446E-02    88   0.146E-01    0.450E-01
DAV:  36    -0.356299664259E+02   -0.39109E-02   -0.17639E-03   120   0.137E-01    0.344E-01
DAV:  37    -0.356310984489E+02   -0.11320E-02   -0.23185E-03   120   0.815E-02    0.214E-01
DAV:  38    -0.356290032465E+02    0.20952E-02   -0.11691E-02    88   0.170E-01    0.399E-01
DAV:  39    -0.356319319091E+02   -0.29287E-02   -0.55453E-04   112   0.120E-01    0.283E-01
DAV:  40    -0.356310333730E+02    0.89854E-03   -0.18876E-03    96   0.794E-02    0.467E-01
DAV:  41    -0.356299791585E+02    0.10542E-02   -0.17259E-03    88   0.126E-01    0.298E-01
DAV:  42    -0.356317233538E+02   -0.17442E-02   -0.93867E-05    80   0.441E-02    0.281E-01
DAV:  43    -0.356309048780E+02    0.81848E-03   -0.28346E-03    88   0.108E-01    0.400E-01
DAV:  44    -0.356312741788E+02   -0.36930E-03   -0.59240E-04    80   0.825E-02    0.334E-01
DAV:  45    -0.356309729609E+02    0.30122E-03   -0.39125E-04    64   0.422E-02    0.295E-01
DAV:  46    -0.356275959803E+02    0.33770E-02   -0.28286E-03   104   0.109E-01    0.184E-01
DAV:  47    -0.356299760882E+02   -0.23801E-02   -0.26208E-04    88   0.587E-02    0.187E-01
DAV:  48    -0.356292831455E+02    0.69294E-03   -0.38381E-04    88   0.374E-02    0.190E-01
DAV:  49    -0.356308784741E+02   -0.15953E-02   -0.41712E-05    48   0.354E-02    0.198E-01
DAV:  50    -0.356303936455E+02    0.48483E-03   -0.82766E-05    48   0.172E-02    0.182E-01
DAV:  51    -0.356314005865E+02   -0.10069E-02   -0.34662E-05    48   0.225E-02    0.190E-01
DAV:  52    -0.356303743704E+02    0.10262E-02   -0.21304E-04    48   0.291E-02    0.177E-01
DAV:  53    -0.356310593048E+02   -0.68493E-03   -0.15364E-05    48   0.187E-02    0.182E-01
DAV:  54    -0.356314093984E+02   -0.35009E-03   -0.24472E-05    48   0.156E-02    0.184E-01
DAV:  55    -0.356315158831E+02   -0.10648E-03   -0.90725E-06    48   0.940E-03    0.181E-01
DAV:  56    -0.356316724114E+02   -0.15653E-03   -0.13200E-05    48   0.748E-03    0.179E-01
DAV:  57    -0.356310945349E+02    0.57788E-03   -0.36144E-05    48   0.146E-02    0.170E-01
DAV:  58    -0.356315907722E+02   -0.49624E-03   -0.20631E-05    48   0.130E-02    0.178E-01
DAV:  59    -0.356314337734E+02    0.15700E-03   -0.44592E-06    48   0.609E-03    0.172E-01
DAV:  60    -0.356314253755E+02    0.83979E-05   -0.77477E-06    48   0.424E-03
   4 F= -.35631425E+02 E0= -.35503680E+02  d E =0.871645E+01
       N       E                     dE             d eps       ncg     rms          rms(c)
DAV:   1    -0.457016538955E+02   -0.10070E+02   -0.99891E+02    96   0.164E+02    0.247E+01
DAV:   2    -0.121587686740E+03   -0.75886E+02   -0.11783E+03   152   0.102E+02    0.476E+01
DAV:   3    -0.931967606492E+02    0.28391E+02   -0.18624E+02   152   0.686E+01    0.272E+01
DAV:   4    -0.704834665576E+02    0.22713E+02   -0.24165E+01   152   0.182E+01    0.204E+01
DAV:   5    -0.650970637573E+02    0.53864E+01   -0.24690E+01   160   0.850E+00    0.192E+01
DAV:   6    -0.572209129785E+02    0.78762E+01   -0.28394E+01   144   0.102E+01    0.257E+01
DAV:   7    -0.538439634680E+02    0.33769E+01   -0.22859E+01   168   0.869E+00    0.841E+00
DAV:   8    -0.537224188346E+02    0.12154E+00   -0.63052E+00   144   0.444E+00    0.166E+01
DAV:   9    -0.532461157901E+02    0.47630E+00   -0.13190E+01   144   0.546E+00    0.861E+00
DAV:  10    -0.525486558779E+02    0.69746E+00   -0.15564E+00   128   0.287E+00    0.876E+00
DAV:  11    -0.579018532164E+02   -0.53532E+01   -0.54514E+01   152   0.669E+00    0.341E+01
DAV:  12    -0.531326100333E+02    0.47692E+01   -0.18577E+01   144   0.830E+00    0.192E+01
DAV:  13    -0.525767586125E+02    0.55585E+00   -0.32348E+00   152   0.268E+00    0.915E+00
DAV:  14    -0.521976008284E+02    0.37916E+00   -0.85828E-01   152   0.164E+00    0.506E+00
DAV:  15    -0.521144596650E+02    0.83141E-01   -0.44568E-01   160   0.113E+00    0.401E+00
DAV:  16    -0.521907488707E+02   -0.76289E-01   -0.75437E-01   152   0.152E+00    0.479E+00
DAV:  17    -0.528425724375E+02   -0.65182E+00   -0.24618E+00   144   0.234E+00    0.200E+01
DAV:  18    -0.526437742248E+02    0.19880E+00   -0.14042E-01   152   0.990E-01    0.179E+01
DAV:  19    -0.524467488284E+02    0.19703E+00   -0.11975E-01   152   0.467E-01    0.143E+01
DAV:  20    -0.524039583361E+02    0.42790E-01   -0.82633E-02   128   0.467E-01    0.130E+01
DAV:  21    -0.522621730477E+02    0.14179E+00   -0.16624E-01   152   0.438E-01    0.956E+00
DAV:  22    -0.522636818125E+02   -0.15088E-02   -0.36254E-03   120   0.177E-01    0.955E+00
DAV:  23    -0.522138593987E+02    0.49822E-01   -0.18601E-01   152   0.499E-01    0.679E+00
DAV:  24    -0.521653290350E+02    0.48530E-01   -0.17308E-01   144   0.425E-01    0.503E+00
DAV:  25    -0.521353823306E+02    0.29947E-01   -0.23385E-01   144   0.627E-01    0.325E+00
DAV:  26    -0.521365430304E+02   -0.11607E-02   -0.15656E-01   160   0.468E-01    0.248E+00
DAV:  27    -0.521539130702E+02   -0.17370E-01   -0.24367E-02   144   0.231E-01    0.368E+00
DAV:  28    -0.521532297373E+02    0.68333E-03   -0.10758E-03   128   0.956E-02    0.376E+00
DAV:  29    -0.521714729103E+02   -0.18243E-01   -0.19280E-02   104   0.211E-01    0.465E+00
DAV:  30    -0.521712001744E+02    0.27274E-03   -0.42329E-03   144   0.129E-01    0.498E+00
DAV:  31    -0.522270363929E+02   -0.55836E-01   -0.10885E-01   144   0.450E-01    0.684E+00
DAV:  32    -0.521878003565E+02    0.39236E-01   -0.21229E-02    96   0.295E-01    0.681E+00
DAV:  33    -0.522216487795E+02   -0.33848E-01   -0.21962E-02   128   0.238E-01    0.741E+00
DAV:  34    -0.521954993126E+02    0.26149E-01   -0.51738E-03    96   0.129E-01    0.708E+00
DAV:  35    -0.521885103317E+02    0.69890E-02   -0.11112E-02   136   0.139E-01    0.629E+00
DAV:  36    -0.521947648662E+02   -0.62545E-02   -0.21389E-03   120   0.113E-01    0.645E+00
DAV:  37    -0.521328628739E+02    0.61902E-01   -0.24145E-01   128   0.394E-01    0.330E+00
DAV:  38    -0.521346767534E+02   -0.18139E-02   -0.65650E-02   144   0.407E-01    0.171E+00
DAV:  39    -0.521409479730E+02   -0.62712E-02   -0.60580E-03   144   0.215E-01    0.123E+00
DAV:  40    -0.521436993788E+02   -0.27514E-02   -0.12800E-03   104   0.964E-02    0.118E+00
DAV:  41    -0.521410018487E+02    0.26975E-02   -0.16129E-03    88   0.890E-02    0.108E+00
DAV:  42    -0.521407308202E+02    0.27103E-03   -0.82500E-04   104   0.664E-02    0.107E+00
DAV:  43    -0.521398935617E+02    0.83726E-03   -0.42131E-04    72   0.572E-02    0.111E+00
DAV:  44    -0.521355196617E+02    0.43739E-02   -0.38445E-03   120   0.125E-01    0.133E+00
DAV:  45    -0.521333149773E+02    0.22047E-02   -0.28064E-03    96   0.999E-02    0.168E+00
DAV:  46    -0.521226979206E+02    0.10617E-01   -0.16681E-03    88   0.114E-01    0.157E+00
DAV:  47    -0.521333538705E+02   -0.10656E-01   -0.73802E-03    88   0.179E-01    0.109E+00
DAV:  48    -0.521346467855E+02   -0.12929E-02   -0.19140E-03   104   0.994E-02    0.948E-01
DAV:  49    -0.521337497127E+02    0.89707E-03   -0.27714E-03    88   0.169E-01    0.100E+00
DAV:  50    -0.521353650682E+02   -0.16154E-02   -0.31896E-04   104   0.740E-02    0.102E+00
DAV:  51    -0.521355357940E+02   -0.17073E-03   -0.69122E-05    56   0.248E-02    0.105E+00
DAV:  52    -0.521336811429E+02    0.18547E-02   -0.10882E-03    88   0.710E-02    0.922E-01
DAV:  53    -0.521296848461E+02    0.39963E-02   -0.70555E-04    96   0.816E-02    0.993E-01
DAV:  54    -0.521296528369E+02    0.32009E-04   -0.10885E-04    56   0.382E-02
   5 F= -.52129653E+02 E0= -.51988963E+02  d E =-.778177E+01
       N       E                     dE             d eps       ncg     rms          rms(c)
DAV:   1    -0.525048244025E+02   -0.37514E+00   -0.53568E+00    96   0.114E+01    0.154E+00
DAV:   2    -0.539425318199E+02   -0.14377E+01   -0.10430E+01   160   0.422E+00    0.165E+01
DAV:   3    -0.525686570843E+02    0.13739E+01   -0.46956E+00   152   0.301E+00    0.470E+00
DAV:   4    -0.525596413682E+02    0.90157E-02   -0.17492E+00   152   0.186E+00    0.493E+00
DAV:   5    -0.524987091013E+02    0.60932E-01   -0.54705E-01   152   0.122E+00    0.175E+00
DAV:   6    -0.525119241310E+02   -0.13215E-01   -0.17073E-01   144   0.612E-01    0.101E+00
DAV:   7    -0.525160098236E+02   -0.40857E-02   -0.13343E-01   144   0.472E-01    0.843E-01
DAV:   8    -0.525224298309E+02   -0.64200E-02   -0.59888E-02   160   0.383E-01    0.542E-01
DAV:   9    -0.525217068622E+02    0.72297E-03   -0.40218E-02   152   0.328E-01    0.279E-01
DAV:  10    -0.525235744030E+02   -0.18675E-02   -0.15629E-02   152   0.218E-01    0.323E-01
DAV:  11    -0.525225738049E+02    0.10006E-02   -0.47588E-03   128   0.133E-01    0.129E-01
DAV:  12    -0.525233234580E+02   -0.74965E-03   -0.49210E-04    96   0.724E-02    0.124E-01
DAV:  13    -0.525235469080E+02   -0.22345E-03   -0.78450E-04   120   0.727E-02    0.747E-02
DAV:  14    -0.525236045459E+02   -0.57638E-04   -0.15125E-04    56   0.514E-02
   6 F= -.52523605E+02 E0= -.52396091E+02  d E =-.817572E+01
       N       E                     dE             d eps       ncg     rms          rms(c)
DAV:   1    -0.530529521822E+02   -0.52941E+00   -0.14705E+02    96   0.585E+01    0.559E+00
DAV:   2    -0.589229664284E+02   -0.58700E+01   -0.38869E+01   160   0.149E+01    0.299E+01
DAV:   3    -0.546649201331E+02    0.42580E+01   -0.19670E+01   152   0.127E+01    0.103E+01
DAV:   4    -0.536801579346E+02    0.98476E+00   -0.16790E+01   152   0.494E+00    0.691E+00
DAV:   5    -0.534878605894E+02    0.19230E+00   -0.58087E+00   144   0.433E+00    0.621E+00
DAV:   6    -0.531785246276E+02    0.30934E+00   -0.31229E+00   152   0.255E+00    0.305E+00
DAV:   7    -0.531206223791E+02    0.57902E-01   -0.81013E-01   160   0.140E+00    0.211E+00
DAV:   8    -0.530882280406E+02    0.32394E-01   -0.38485E-01   160   0.106E+00    0.171E+00
DAV:   9    -0.530822891753E+02    0.59389E-02   -0.24475E-01   144   0.117E+00    0.146E+00
DAV:  10    -0.530688008409E+02    0.13488E-01   -0.10328E-01   136   0.718E-01    0.314E-01
DAV:  11    -0.530741872494E+02   -0.53864E-02   -0.19457E-02   160   0.274E-01    0.305E-01
DAV:  12    -0.530734936724E+02    0.69358E-03   -0.11015E-02   144   0.158E-01    0.184E-01
DAV:  13    -0.530743031584E+02   -0.80949E-03   -0.16796E-03   136   0.106E-01    0.116E-01
DAV:  14    -0.530747947285E+02   -0.49157E-03   -0.69753E-04   112   0.813E-02    0.669E-02
DAV:  15    -0.530751670227E+02   -0.37229E-03   -0.16068E-04    80   0.517E-02    0.388E-02
DAV:  16    -0.530754329744E+02   -0.26595E-03   -0.90763E-05    72   0.333E-02    0.264E-02
DAV:  17    -0.530758097671E+02   -0.37679E-03   -0.10904E-04    72   0.305E-02    0.247E-02
DAV:  18    -0.530760227948E+02   -0.21303E-03   -0.35497E-05    48   0.208E-02    0.180E-02
DAV:  19    -0.530761935698E+02   -0.17077E-03   -0.38395E-05    56   0.159E-02    0.777E-03
DAV:  20    -0.530762890736E+02   -0.95504E-04   -0.15590E-05    48   0.112E-02
   7 F= -.53076289E+02 E0= -.52990720E+02  d E =-.872841E+01
       N       E                     dE             d eps       ncg     rms          rms(c)
DAV:   1    -0.533144219889E+02   -0.23823E+00   -0.41415E+01    96   0.309E+01    0.426E+00
DAV:   2    -0.605959129645E+02   -0.72815E+01   -0.25961E+01   160   0.135E+01    0.314E+01
DAV:   3    -0.551167410786E+02    0.54792E+01   -0.23820E+01   144   0.102E+01    0.111E+01
DAV:   4    -0.532498974043E+02    0.18668E+01   -0.81300E+00   152   0.526E+00    0.432E+00
DAV:   5    -0.532562287584E+02   -0.63314E-02   -0.16454E+00   160   0.208E+00    0.204E+00
DAV:   6    -0.533103834149E+02   -0.54155E-01   -0.92419E-01   160   0.138E+00    0.470E+00
DAV:   7    -0.532353045971E+02    0.75079E-01   -0.82057E-01   152   0.133E+00    0.177E+00
DAV:   8    -0.532464114106E+02   -0.11107E-01   -0.35152E-01   152   0.953E-01    0.160E+00
DAV:   9    -0.532285413358E+02    0.17870E-01   -0.24367E-01   160   0.655E-01    0.667E-01
DAV:  10    -0.532275416722E+02    0.99966E-03   -0.47488E-02   152   0.359E-01    0.308E-01
DAV:  11    -0.532277750823E+02   -0.23341E-03   -0.16397E-02   152   0.211E-01    0.299E-01
DAV:  12    -0.532275487528E+02    0.22633E-03   -0.61350E-03   144   0.127E-01    0.196E-01
DAV:  13    -0.532274645546E+02    0.84198E-04   -0.50138E-04    96   0.722E-02
   8 F= -.53227465E+02 E0= -.53120870E+02  d E =-.887958E+01
       N       E                     dE             d eps       ncg     rms          rms(c)
DAV:   1    -0.533168237909E+02   -0.89275E-01   -0.37960E+00    96   0.931E+00    0.115E+00
DAV:   2    -0.540636003837E+02   -0.74678E+00   -0.30923E+00   160   0.310E+00    0.180E+01
DAV:   3    -0.532939469399E+02    0.76965E+00   -0.66498E+00   144   0.314E+00    0.282E+00
DAV:   4    -0.533457761755E+02   -0.51829E-01   -0.10924E+00   152   0.116E+00    0.224E+00
DAV:   5    -0.533186025098E+02    0.27174E-01   -0.29033E-01   152   0.903E-01    0.129E+00
DAV:   6    -0.533139439086E+02    0.46586E-02   -0.15219E-01   160   0.590E-01    0.616E-01
DAV:   7    -0.533118699577E+02    0.20740E-02   -0.33280E-02   152   0.311E-01    0.497E-01
DAV:   8    -0.533119688435E+02   -0.98886E-04   -0.15654E-02   144   0.212E-01    0.389E-01
DAV:   9    -0.533109758479E+02    0.99300E-03   -0.91614E-03   144   0.160E-01    0.222E-01
DAV:  10    -0.533110037665E+02   -0.27919E-04   -0.14612E-03   120   0.942E-02    0.126E-01
DAV:  11    -0.533110939070E+02   -0.90141E-04   -0.30553E-04    88   0.441E-02
   9 F= -.53311094E+02 E0= -.53211718E+02  d E =-.896321E+01
       N       E                     dE             d eps       ncg     rms          rms(c)
DAV:   1    -0.533181304945E+02   -0.71267E-02   -0.49147E-01    96   0.335E+00    0.442E-01
DAV:   2    -0.534231047841E+02   -0.10497E+00   -0.35835E-01   160   0.123E+00    0.612E+00
DAV:   3    -0.533031039258E+02    0.12000E+00   -0.66239E-01   152   0.122E+00    0.120E+00
DAV:   4    -0.533218229361E+02   -0.18719E-01   -0.15953E-01   152   0.463E-01    0.967E-01
DAV:   5    -0.533164562766E+02    0.53667E-02   -0.38895E-02   152   0.323E-01    0.358E-01
DAV:   6    -0.533176015864E+02   -0.11453E-02   -0.13921E-02   144   0.199E-01    0.203E-01
DAV:   7    -0.533171787712E+02    0.42282E-03   -0.58059E-03   144   0.121E-01    0.128E-01
DAV:   8    -0.533172914183E+02   -0.11265E-03   -0.26007E-03   136   0.831E-02    0.894E-02
DAV:   9    -0.533171850939E+02    0.10632E-03   -0.10696E-03   120   0.593E-02    0.443E-02
DAV:  10    -0.533172121243E+02   -0.27030E-04   -0.15236E-04    72   0.348E-02
  10 F= -.53317212E+02 E0= -.53219714E+02  d E =-.896933E+01
       N       E                     dE             d eps       ncg     rms          rms(c)
DAV:   1    -0.552619058065E+02   -0.19447E+01   -0.17778E+02   104   0.101E+02    0.981E+00
DAV:   2    -0.911812718268E+02   -0.35919E+02   -0.23124E+02   144   0.295E+01    0.446E+01
DAV:   3    -0.599150881863E+02    0.31266E+02   -0.34607E+01   136   0.255E+01    0.855E+00
DAV:   4    -0.576882569477E+02    0.22268E+01   -0.12706E+01   152   0.925E+00    0.169E+01
DAV:   5    -0.563981504883E+02    0.12901E+01   -0.87978E+00   160   0.422E+00    0.382E+00
DAV:   6    -0.562843981016E+02    0.11375E+00   -0.17569E+00   152   0.219E+00    0.260E+00
DAV:   7    -0.562944685449E+02   -0.10070E-01   -0.80614E-01   144   0.139E+00    0.317E+00
DAV:   8    -0.562488822878E+02    0.45586E-01   -0.30686E-01   136   0.723E-01    0.173E+00
DAV:   9    -0.562744986288E+02   -0.25616E-01   -0.40119E-01   152   0.111E+00    0.296E+00
DAV:  10    -0.562329426461E+02    0.41556E-01   -0.74671E-01   152   0.161E+00    0.208E+00
DAV:  11    -0.562196927394E+02    0.13250E-01   -0.21776E-01   160   0.931E-01    0.105E+00
DAV:  12    -0.562096384542E+02    0.10054E-01   -0.63812E-02   152   0.482E-01    0.826E-01
DAV:  13    -0.562094794668E+02    0.15899E-03   -0.16774E-02   144   0.211E-01    0.660E-01
DAV:  14    -0.562088853350E+02    0.59413E-03   -0.71373E-03   144   0.167E-01    0.488E-01
DAV:  15    -0.562093117300E+02   -0.42639E-03   -0.24687E-03   144   0.127E-01    0.299E-01
DAV:  16    -0.562098243259E+02   -0.51260E-03   -0.79719E-04   128   0.861E-02    0.198E-01
DAV:  17    -0.562104130224E+02   -0.58870E-03   -0.65738E-04    96   0.688E-02    0.705E-02
DAV:  18    -0.562109919689E+02   -0.57895E-03   -0.24360E-04    88   0.533E-02    0.337E-02
DAV:  19    -0.562111760352E+02   -0.18407E-03   -0.72244E-05    72   0.341E-02    0.244E-02
DAV:  20    -0.562113259646E+02   -0.14993E-03   -0.43364E-05    48   0.230E-02    0.271E-02
DAV:  21    -0.562114364581E+02   -0.11049E-03   -0.29248E-05    48   0.170E-02    0.205E-02
DAV:  22    -0.562115379548E+02   -0.10150E-03   -0.39682E-05    64   0.162E-02    0.128E-02
DAV:  23    -0.562116045943E+02   -0.66640E-04   -0.22800E-05    48   0.124E-02
  11 F= -.56211605E+02 E0= -.56120494E+02  d E =-.289439E+01
       N       E                     dE             d eps       ncg     rms          rms(c)
DAV:   1    -0.543169929003E+02    0.18945E+01   -0.38974E+02   104   0.146E+02    0.155E+01
DAV:   2    -0.121718592764E+03   -0.67402E+02   -0.53564E+02   152   0.452E+01    0.525E+01
DAV:   3    -0.615299690149E+02    0.60189E+02   -0.80122E+01   128   0.447E+01    0.211E+01
DAV:   4    -0.560287450483E+02    0.55012E+01   -0.38411E+01   144   0.858E+00    0.538E+00
DAV:   5    -0.562831277145E+02   -0.25438E+00   -0.10071E+01   136   0.767E+00    0.562E+00
DAV:   6    -0.562227463428E+02    0.60381E-01   -0.52210E+00   168   0.498E+00    0.618E+00
DAV:   7    -0.561535837324E+02    0.69163E-01   -0.46247E+00   152   0.236E+00    0.326E+00
DAV:   8    -0.563369803103E+02   -0.18340E+00   -0.22217E+00   144   0.219E+00    0.109E+01
DAV:   9    -0.559480520793E+02    0.38893E+00   -0.23387E+00   128   0.171E+00    0.275E+00
DAV:  10    -0.560170674046E+02   -0.69015E-01   -0.22512E-01   152   0.965E-01    0.163E+00
DAV:  11    -0.560214540658E+02   -0.43867E-02   -0.12625E-01   160   0.784E-01    0.189E+00
DAV:  12    -0.560092599822E+02    0.12194E-01   -0.55134E-02   152   0.374E-01    0.862E-01
DAV:  13    -0.560146222798E+02   -0.53623E-02   -0.24863E-02   152   0.448E-01    0.127E+00
DAV:  14    -0.560099732332E+02    0.46490E-02   -0.32996E-02   152   0.299E-01    0.511E-01
DAV:  15    -0.560114020470E+02   -0.14288E-02   -0.76204E-03   144   0.152E-01    0.327E-01
DAV:  16    -0.560122282690E+02   -0.82622E-03   -0.19677E-03   136   0.101E-01    0.203E-01
DAV:  17    -0.560127455541E+02   -0.51729E-03   -0.82555E-04    80   0.616E-02    0.144E-01
DAV:  18    -0.560136619488E+02   -0.91639E-03   -0.92931E-04   112   0.577E-02    0.198E-01
DAV:  19    -0.560138462099E+02   -0.18426E-03   -0.27975E-04    72   0.422E-02    0.142E-01
DAV:  20    -0.560141944072E+02   -0.34820E-03   -0.26661E-04    88   0.337E-02    0.102E-01
DAV:  21    -0.560146691373E+02   -0.47473E-03   -0.16709E-04    56   0.278E-02    0.958E-02
DAV:  22    -0.560147932888E+02   -0.12415E-03   -0.13319E-03    96   0.573E-02    0.663E-02
DAV:  23    -0.560151864647E+02   -0.39318E-03   -0.10549E-04    64   0.437E-02    0.470E-02
DAV:  24    -0.560144347617E+02    0.75170E-03   -0.41681E-04    64   0.362E-02    0.677E-02
DAV:  25    -0.560150560601E+02   -0.62130E-03   -0.70291E-05    48   0.241E-02    0.633E-02
DAV:  26    -0.560152920331E+02   -0.23597E-03   -0.60504E-05    56   0.168E-02    0.509E-02
DAV:  27    -0.560151869805E+02    0.10505E-03   -0.10779E-05    48   0.119E-02    0.456E-02
DAV:  28    -0.560153052108E+02   -0.11823E-03   -0.21648E-05    48   0.951E-03    0.417E-02
DAV:  29    -0.560153107728E+02   -0.55619E-05   -0.12700E-05    48   0.874E-03
  12 F= -.56015311E+02 E0= -.55920799E+02  d E =-.269810E+01
       N       E                     dE             d eps       ncg     rms          rms(c)
DAV:   1    -0.568468052431E+02   -0.83150E+00   -0.14928E+02    96   0.947E+01    0.143E+01
DAV:   2    -0.989787759442E+02   -0.42132E+02   -0.42045E+02   160   0.492E+01    0.424E+01
DAV:   3    -0.725989222411E+02    0.26380E+02   -0.75286E+01   136   0.446E+01    0.205E+01
DAV:   4    -0.617602739867E+02    0.10839E+02   -0.12477E+01   136   0.125E+01    0.150E+01
DAV:   5    -0.592338888694E+02    0.25264E+01   -0.84118E+00   152   0.444E+00    0.128E+01
DAV:   6    -0.570234800426E+02    0.22104E+01   -0.11125E+01   144   0.438E+00    0.422E+00
DAV:   7    -0.571669348768E+02   -0.14345E+00   -0.26103E+00   152   0.258E+00    0.590E+00
DAV:   8    -0.571797065717E+02   -0.12772E-01   -0.72500E+00   144   0.256E+00    0.647E+00
DAV:   9    -0.569665861468E+02    0.21312E+00   -0.21949E+00   128   0.271E+00    0.262E+00
DAV:  10    -0.569401472167E+02    0.26439E-01   -0.27855E-01   168   0.101E+00    0.212E+00
DAV:  11    -0.569243281236E+02    0.15819E-01   -0.12596E-01   136   0.102E+00    0.165E+00
DAV:  12    -0.569002846057E+02    0.24044E-01   -0.29432E-01   136   0.114E+00    0.128E+00
DAV:  13    -0.569026312934E+02   -0.23467E-02   -0.78340E-02   152   0.558E-01    0.183E+00
DAV:  14    -0.568917139415E+02    0.10917E-01   -0.49786E-02   152   0.281E-01    0.828E-01
DAV:  15    -0.568976862409E+02   -0.59723E-02   -0.14831E-02   152   0.293E-01    0.951E-01
DAV:  16    -0.568930234519E+02    0.46628E-02   -0.50548E-02   152   0.317E-01    0.348E-01
DAV:  17    -0.568944388420E+02   -0.14154E-02   -0.52647E-03   136   0.145E-01    0.166E-01
DAV:  18    -0.568946336002E+02   -0.19476E-03   -0.71636E-04    96   0.672E-02    0.132E-01
DAV:  19    -0.568948045662E+02   -0.17097E-03   -0.79548E-04   120   0.594E-02    0.964E-02
DAV:  20    -0.568948777093E+02   -0.73143E-04   -0.34278E-04    72   0.354E-02
  13 F= -.56894878E+02 E0= -.56805302E+02  d E =-.357767E+01
       N       E                     dE             d eps       ncg     rms          rms(c)
DAV:   1    -0.581699688506E+02   -0.12752E+01   -0.18008E+02   104   0.103E+02    0.504E+00
DAV:   2    -0.645678586134E+02   -0.63979E+01   -0.30420E+01   144   0.223E+01    0.309E+01
DAV:   3    -0.598395357987E+02    0.47283E+01   -0.32174E+01   152   0.151E+01    0.933E+00
DAV:   4    -0.598838550987E+02   -0.44319E-01   -0.16967E+01   144   0.431E+00    0.140E+01
DAV:   5    -0.593684084651E+02    0.51545E+00   -0.94571E+00   152   0.435E+00    0.446E+00
DAV:   6    -0.591530641847E+02    0.21534E+00   -0.20477E+00   144   0.283E+00    0.314E+00
DAV:   7    -0.591046402321E+02    0.48424E-01   -0.42017E-01   144   0.179E+00    0.207E+00
DAV:   8    -0.590896474363E+02    0.14993E-01   -0.11847E-01   160   0.113E+00    0.107E+00
DAV:   9    -0.590873333161E+02    0.23141E-02   -0.60210E-02   152   0.647E-01    0.843E-01
DAV:  10    -0.590863424431E+02    0.99087E-03   -0.29303E-02   168   0.381E-01    0.469E-01
DAV:  11    -0.590865345344E+02   -0.19209E-03   -0.45822E-03   152   0.216E-01    0.285E-01
DAV:  12    -0.590872163904E+02   -0.68186E-03   -0.18474E-03   152   0.146E-01    0.225E-01
DAV:  13    -0.590877070000E+02   -0.49061E-03   -0.11542E-03   128   0.990E-02    0.150E-01
DAV:  14    -0.590879614120E+02   -0.25441E-03   -0.99444E-04    96   0.740E-02    0.964E-02
DAV:  15    -0.590880684654E+02   -0.10705E-03   -0.28747E-04    80   0.574E-02    0.627E-02
DAV:  16    -0.590884267128E+02   -0.35825E-03   -0.27728E-04    72   0.478E-02    0.643E-02
DAV:  17    -0.590884767611E+02   -0.50048E-04   -0.71336E-05    72   0.304E-02
  14 F= -.59088477E+02 E0= -.58996783E+02  d E =-.219360E+01
       N       E                     dE             d eps       ncg     rms          rms(c)
DAV:   1    -0.591342566179E+02   -0.45830E-01   -0.75271E+00   104   0.216E+01    0.105E+00
DAV:   2    -0.593641191050E+02   -0.22986E+00   -0.15164E+00   144   0.446E+00    0.656E+00
DAV:   3    -0.591650912658E+02    0.19903E+00   -0.14904E+00   160   0.265E+00    0.152E+00
DAV:   4    -0.591800353718E+02   -0.14944E-01   -0.37823E-01   136   0.891E-01    0.205E+00
DAV:   5    -0.591725677083E+02    0.74677E-02   -0.27385E-01   152   0.798E-01    0.153E+00
DAV:   6    -0.591594050176E+02    0.13163E-01   -0.98136E-02   152   0.641E-01    0.459E-01
DAV:   7    -0.591612879860E+02   -0.18830E-02   -0.19942E-02   152   0.372E-01    0.389E-01
DAV:   8    -0.591608165473E+02    0.47144E-03   -0.10053E-02   136   0.204E-01    0.226E-01
DAV:   9    -0.591608148859E+02    0.16614E-05   -0.26133E-03   128   0.118E-01    0.130E-01
DAV:  10    -0.591609741258E+02   -0.15924E-03   -0.76897E-04   104   0.802E-02    0.785E-02
DAV:  11    -0.591610373363E+02   -0.63210E-04   -0.20991E-04    72   0.458E-02
  15 F= -.59161037E+02 E0= -.59067933E+02  d E =-.226616E+01
       N       E                     dE             d eps       ncg     rms          rms(c)
DAV:   1    -0.600925004172E+02   -0.93153E+00   -0.67056E+01   112   0.709E+01    0.282E+00
DAV:   2    -0.637218585545E+02   -0.36294E+01   -0.12071E+01   128   0.141E+01    0.265E+01
DAV:   3    -0.605107781001E+02    0.32111E+01   -0.68358E+00   152   0.800E+00    0.268E+00
DAV:   4    -0.606258276053E+02   -0.11505E+00   -0.19746E+00   144   0.220E+00    0.302E+00
DAV:   5    -0.605636188507E+02    0.62209E-01   -0.44197E-01   152   0.169E+00    0.253E+00
DAV:   6    -0.605932364840E+02   -0.29618E-01   -0.65110E-01   136   0.149E+00    0.475E+00
DAV:   7    -0.605315070130E+02    0.61729E-01   -0.10015E+00   144   0.124E+00    0.107E+00
DAV:   8    -0.605368760697E+02   -0.53691E-02   -0.46794E-02   136   0.557E-01    0.704E-01
DAV:   9    -0.605391146344E+02   -0.22386E-02   -0.10637E-02   136   0.289E-01    0.664E-01
DAV:  10    -0.605382121200E+02    0.90251E-03   -0.91852E-03   152   0.237E-01    0.332E-01
DAV:  11    -0.605387677203E+02   -0.55560E-03   -0.32388E-03   144   0.133E-01    0.191E-01
DAV:  12    -0.605390185483E+02   -0.25083E-03   -0.33790E-04    80   0.658E-02    0.147E-01
DAV:  13    -0.605394502712E+02   -0.43172E-03   -0.35692E-04    72   0.494E-02    0.119E-01
DAV:  14    -0.605394831050E+02   -0.32834E-04   -0.13246E-04    56   0.349E-02
  16 F= -.60539483E+02 E0= -.60444829E+02  d E =-.137845E+01
       N       E                     dE             d eps       ncg     rms          rms(c)
DAV:   1    -0.559764857682E+02    0.45630E+01   -0.58454E+02   112   0.187E+02    0.870E+00
DAV:   2    -0.723665442296E+02   -0.16390E+02   -0.12947E+02   112   0.446E+01    0.325E+01
DAV:   3    -0.641506780938E+02    0.82159E+01   -0.21416E+01   136   0.232E+01    0.134E+01
DAV:   4    -0.623511018289E+02    0.17996E+01   -0.23679E+01   152   0.753E+00    0.725E+00
DAV:   5    -0.616758948121E+02    0.67521E+00   -0.60630E+00   152   0.522E+00    0.563E+00
DAV:   6    -0.619711627226E+02   -0.29527E+00   -0.54061E+00   144   0.384E+00    0.128E+01
DAV:   7    -0.616860075173E+02    0.28516E+00   -0.87612E+00   144   0.390E+00    0.335E+00
DAV:   8    -0.615568610947E+02    0.12915E+00   -0.98266E-01   144   0.213E+00    0.246E+00
DAV:   9    -0.615753031885E+02   -0.18442E-01   -0.47366E-01   144   0.125E+00    0.243E+00
DAV:  10    -0.615682295942E+02    0.70736E-02   -0.11991E-01   152   0.804E-01    0.187E+00
DAV:  11    -0.615562999685E+02    0.11930E-01   -0.51570E-02   152   0.496E-01    0.855E-01
DAV:  12    -0.615552889240E+02    0.10110E-02   -0.46592E-03   136   0.191E-01    0.668E-01
DAV:  13    -0.615560299706E+02   -0.74105E-03   -0.35317E-03   144   0.136E-01    0.446E-01
DAV:  14    -0.615573414863E+02   -0.13115E-02   -0.19227E-03   120   0.960E-02    0.312E-01
DAV:  15    -0.615587657881E+02   -0.14243E-02   -0.67324E-04    80   0.651E-02    0.257E-01
DAV:  16    -0.615619665838E+02   -0.32008E-02   -0.95191E-03   136   0.165E-01    0.244E-01
DAV:  17    -0.615634394143E+02   -0.14728E-02   -0.10725E-03   120   0.816E-02    0.116E-01
DAV:  18    -0.615638359655E+02   -0.39655E-03   -0.66334E-04    88   0.752E-02    0.114E-01
DAV:  19    -0.615643527093E+02   -0.51674E-03   -0.52355E-04    80   0.561E-02    0.747E-02
DAV:  20    -0.615646358045E+02   -0.28310E-03   -0.25219E-04    96   0.344E-02    0.625E-02
DAV:  21    -0.615647343218E+02   -0.98517E-04   -0.47450E-04    80   0.455E-02
  17 F= -.61564734E+02 E0= -.61470826E+02  d E =-.240370E+01
       N       E                     dE             d eps       ncg     rms          rms(c)
DAV:   1    -0.609828790874E+02    0.58176E+00   -0.16401E+02   112   0.105E+02    0.454E+00
DAV:   2    -0.658814899606E+02   -0.48986E+01   -0.40461E+01   112   0.211E+01    0.280E+01
DAV:   3    -0.624064587594E+02    0.34750E+01   -0.17668E+01   152   0.989E+00    0.597E+00
DAV:   4    -0.621133969400E+02    0.29306E+00   -0.50107E+00   152   0.451E+00    0.908E+00
DAV:   5    -0.621795629379E+02   -0.66166E-01   -0.63204E+00   152   0.470E+00    0.582E+00
DAV:   6    -0.620042016814E+02    0.17536E+00   -0.33348E+00   144   0.198E+00    0.279E+00
DAV:   7    -0.619355667526E+02    0.68635E-01   -0.34134E-01   144   0.114E+00    0.174E+00
DAV:   8    -0.619298196201E+02    0.57471E-02   -0.80143E-02   152   0.770E-01    0.134E+00
DAV:   9    -0.619287780192E+02    0.10416E-02   -0.11726E-01   136   0.577E-01    0.111E+00
DAV:  10    -0.619231591064E+02    0.56189E-02   -0.42239E-02   152   0.427E-01    0.444E-01
DAV:  11    -0.619262690997E+02   -0.31100E-02   -0.51187E-03   152   0.215E-01    0.290E-01
DAV:  12    -0.619286338982E+02   -0.23648E-02   -0.35164E-03   144   0.145E-01    0.209E-01
DAV:  13    -0.619292342008E+02   -0.60030E-03   -0.92169E-04   128   0.927E-02    0.124E-01
DAV:  14    -0.619299657659E+02   -0.73157E-03   -0.76778E-04    80   0.700E-02    0.851E-02
DAV:  15    -0.619303294151E+02   -0.36365E-03   -0.25650E-04    72   0.468E-02    0.579E-02
DAV:  16    -0.619305901080E+02   -0.26069E-03   -0.13128E-04    72   0.308E-02    0.536E-02
DAV:  17    -0.619308355676E+02   -0.24546E-03   -0.10742E-04    56   0.252E-02    0.459E-02
DAV:  18    -0.619310721147E+02   -0.23655E-03   -0.36638E-04    96   0.371E-02    0.370E-02
DAV:  19    -0.619311013381E+02   -0.29223E-04   -0.27503E-04    72   0.338E-02
  18 F= -.61931101E+02 E0= -.61838158E+02  d E =-.277006E+01
       N       E                     dE             d eps       ncg     rms          rms(c)
DAV:   1    -0.618330144065E+02    0.98058E-01   -0.46825E+01   112   0.584E+01    0.258E+00
DAV:   2    -0.645347510295E+02   -0.27017E+01   -0.15819E+01   112   0.116E+01    0.228E+01
DAV:   3    -0.621144999345E+02    0.24203E+01   -0.96572E+00   152   0.662E+00    0.564E+00
DAV:   4    -0.621286256284E+02   -0.14126E-01   -0.38455E+00   144   0.218E+00    0.354E+00
DAV:   5    -0.621715934052E+02   -0.42968E-01   -0.17281E+00   144   0.233E+00    0.316E+00
DAV:   6    -0.620693660067E+02    0.10223E+00   -0.67776E-01   136   0.138E+00    0.964E-01
DAV:   7    -0.620808666312E+02   -0.11501E-01   -0.71688E-02   136   0.772E-01    0.518E-01
DAV:   8    -0.620840725321E+02   -0.32059E-02   -0.32347E-02   144   0.433E-01    0.626E-01
DAV:   9    -0.620836405484E+02    0.43198E-03   -0.13762E-02   144   0.244E-01    0.269E-01
DAV:  10    -0.620847191285E+02   -0.10786E-02   -0.25359E-03   152   0.134E-01    0.212E-01
DAV:  11    -0.620849026417E+02   -0.18351E-03   -0.54652E-04   104   0.755E-02    0.133E-01
DAV:  12    -0.620851154865E+02   -0.21284E-03   -0.16369E-04    72   0.459E-02    0.109E-01
DAV:  13    -0.620852210469E+02   -0.10556E-03   -0.10998E-04    72   0.327E-02    0.715E-02
DAV:  14    -0.620853940890E+02   -0.17304E-03   -0.80640E-05    72   0.293E-02    0.387E-02
DAV:  15    -0.620856466024E+02   -0.25251E-03   -0.26207E-04   112   0.345E-02    0.470E-02
DAV:  16    -0.620856395578E+02    0.70446E-05   -0.15620E-05    72   0.181E-02
  19 F= -.62085640E+02 E0= -.61991820E+02  d E =-.292460E+01
       N       E                     dE             d eps       ncg     rms          rms(c)
DAV:   1    -0.627325842259E+02   -0.64694E+00   -0.23112E+01   112   0.435E+01    0.154E+00
DAV:   2    -0.638566195989E+02   -0.11240E+01   -0.60589E+00   112   0.813E+00    0.186E+01
DAV:   3    -0.627957473601E+02    0.10609E+01   -0.73506E+00   136   0.388E+00    0.161E+00
DAV:   4    -0.629846995351E+02   -0.18895E+00   -0.10892E+00   152   0.157E+00    0.436E+00
DAV:   5    -0.629111618757E+02    0.73538E-01   -0.86061E-01   144   0.150E+00    0.138E+00
DAV:   6    -0.629069515132E+02    0.42104E-02   -0.13065E-01   144   0.624E-01    0.872E-01
DAV:   7    -0.629079729672E+02   -0.10215E-02   -0.60860E-02   160   0.503E-01    0.491E-01
DAV:   8    -0.629077729342E+02    0.20003E-03   -0.13705E-02   144   0.296E-01    0.212E-01
DAV:   9    -0.629083822390E+02   -0.60930E-03   -0.30636E-03   152   0.168E-01    0.151E-01
DAV:  10    -0.629087376031E+02   -0.35536E-03   -0.86731E-04   104   0.933E-02    0.119E-01
DAV:  11    -0.629088621869E+02   -0.12458E-03   -0.21417E-04    56   0.545E-02    0.773E-02
DAV:  12    -0.629089639477E+02   -0.10176E-03   -0.77682E-05    48   0.334E-02    0.668E-02
DAV:  13    -0.629090455914E+02   -0.81644E-04   -0.43754E-05    56   0.230E-02
  20 F= -.62909046E+02 E0= -.62817191E+02  d E =-.823406E+00
       N       E                     dE             d eps       ncg     rms          rms(c)
DAV:   1    -0.631451484697E+02   -0.23618E+00   -0.21217E+02   112   0.123E+02    0.465E+00
DAV:   2    -0.705167762577E+02   -0.73716E+01   -0.42778E+01   112   0.258E+01    0.294E+01
DAV:   3    -0.653154035303E+02    0.52014E+01   -0.11690E+01   160   0.132E+01    0.821E+00
DAV:   4    -0.651705357377E+02    0.14487E+00   -0.93038E+00   152   0.384E+00    0.501E+00
DAV:   5    -0.649448659811E+02    0.22567E+00   -0.14283E+00   160   0.291E+00    0.228E+00
DAV:   6    -0.649762780288E+02   -0.31412E-01   -0.59163E-01   144   0.174E+00    0.348E+00
DAV:   7    -0.649779948884E+02   -0.17169E-02   -0.11957E+00   136   0.158E+00    0.178E+00
DAV:   8    -0.649621907957E+02    0.15804E-01   -0.35498E-01   144   0.885E-01    0.143E+00
DAV:   9    -0.649562033255E+02    0.59875E-02   -0.77155E-02   144   0.455E-01    0.320E-01
DAV:  10    -0.649592138162E+02   -0.30105E-02   -0.10652E-02   136   0.274E-01    0.465E-01
DAV:  11    -0.649593976538E+02   -0.18384E-03   -0.38233E-03   144   0.164E-01    0.226E-01
DAV:  12    -0.649602414011E+02   -0.84375E-03   -0.13744E-03   120   0.949E-02    0.128E-01
DAV:  13    -0.649610021390E+02   -0.76074E-03   -0.32626E-04    88   0.666E-02    0.859E-02
DAV:  14    -0.649613967631E+02   -0.39462E-03   -0.28440E-04    72   0.472E-02    0.426E-02
DAV:  15    -0.649619495214E+02   -0.55276E-03   -0.40300E-04   112   0.445E-02    0.497E-02
DAV:  16    -0.649622477708E+02   -0.29825E-03   -0.91966E-05    72   0.280E-02    0.523E-02
DAV:  17    -0.649624473400E+02   -0.19957E-03   -0.12499E-04    56   0.274E-02    0.210E-02
DAV:  18    -0.649625163051E+02   -0.68965E-04   -0.22238E-05    48   0.173E-02
  21 F= -.64962516E+02 E0= -.64875207E+02  d E =-.287688E+01
       N       E                     dE             d eps       ncg     rms          rms(c)
DAV:   1    -0.544685907313E+02    0.10494E+02   -0.87681E+02   112   0.228E+02    0.844E+00
DAV:   2    -0.749743054592E+02   -0.20506E+02   -0.16320E+02   112   0.557E+01    0.355E+01
DAV:   3    -0.672661235945E+02    0.77082E+01   -0.34618E+01   136   0.274E+01    0.883E+00
DAV:   4    -0.668815648055E+02    0.38456E+00   -0.13635E+01   168   0.835E+00    0.138E+01
DAV:   5    -0.666870119618E+02    0.19455E+00   -0.21321E+01   136   0.784E+00    0.824E+00
DAV:   6    -0.662064412944E+02    0.48057E+00   -0.52695E+00   160   0.293E+00    0.454E+00
DAV:   7    -0.660061171408E+02    0.20032E+00   -0.12877E+00   152   0.292E+00    0.294E+00
DAV:   8    -0.659996142522E+02    0.65029E-02   -0.26525E-01   144   0.153E+00    0.180E+00
DAV:   9    -0.660054988162E+02   -0.58846E-02   -0.14886E-01   160   0.987E-01    0.123E+00
DAV:  10    -0.660070081894E+02   -0.15094E-02   -0.84466E-02   152   0.713E-01    0.583E-01
DAV:  11    -0.660097838883E+02   -0.27757E-02   -0.14262E-02   128   0.356E-01    0.279E-01
DAV:  12    -0.660119537789E+02   -0.21699E-02   -0.37319E-03   144   0.180E-01    0.180E-01
DAV:  13    -0.660127807618E+02   -0.82698E-03   -0.10577E-03   120   0.926E-02    0.835E-02
DAV:  14    -0.660141743882E+02   -0.13936E-02   -0.59947E-04    88   0.679E-02    0.972E-02
DAV:  15    -0.660149013589E+02   -0.72697E-03   -0.43879E-04    96   0.535E-02    0.410E-02
DAV:  16    -0.660157273948E+02   -0.82604E-03   -0.13517E-04    80   0.386E-02    0.264E-02
DAV:  17    -0.660163031467E+02   -0.57575E-03   -0.14157E-04    96   0.259E-02    0.303E-02
DAV:  18    -0.660166747206E+02   -0.37157E-03   -0.37023E-05    72   0.195E-02    0.164E-02
DAV:  19    -0.660170042785E+02   -0.32956E-03   -0.67582E-05    80   0.175E-02    0.794E-03
DAV:  20    -0.660171958670E+02   -0.19159E-03   -0.24050E-05    72   0.117E-02    0.471E-03
DAV:  21    -0.660172572954E+02   -0.61428E-04   -0.11462E-05    72   0.767E-03
  22 F= -.66017257E+02 E0= -.65942479E+02  d E =-.393162E+01
       N       E                     dE             d eps       ncg     rms          rms(c)
DAV:   1    -0.652206816929E+02    0.79651E+00   -0.12273E+02   112   0.955E+01    0.306E+00
DAV:   2    -0.667272083404E+02   -0.15065E+01   -0.16501E+01    96   0.186E+01    0.124E+01
DAV:   3    -0.664771789983E+02    0.25003E+00   -0.10925E+01   160   0.518E+00    0.696E+00
DAV:   4    -0.663253581880E+02    0.15182E+00   -0.35143E+00   144   0.204E+00    0.285E+00
DAV:   5    -0.663060576788E+02    0.19301E-01   -0.79580E-01   144   0.221E+00    0.407E+00
DAV:   6    -0.662929050371E+02    0.13153E-01   -0.10620E+00   160   0.221E+00    0.295E+00
DAV:   7    -0.662631968306E+02    0.29708E-01   -0.59188E-01   152   0.103E+00    0.119E+00
DAV:   8    -0.662554792521E+02    0.77176E-02   -0.98364E-02   144   0.782E-01    0.801E-01
DAV:   9    -0.662566196380E+02   -0.11404E-02   -0.16568E-02   152   0.358E-01    0.339E-01
DAV:  10    -0.662591102092E+02   -0.24906E-02   -0.26239E-03   152   0.168E-01    0.202E-01
DAV:  11    -0.662598847862E+02   -0.77458E-03   -0.10934E-03   104   0.926E-02    0.985E-02
DAV:  12    -0.662604397603E+02   -0.55497E-03   -0.40951E-04    88   0.640E-02    0.759E-02
DAV:  13    -0.662606611783E+02   -0.22142E-03   -0.12805E-04    56   0.415E-02    0.383E-02
DAV:  14    -0.662609182382E+02   -0.25706E-03   -0.10892E-04    56   0.301E-02    0.254E-02
DAV:  15    -0.662611048644E+02   -0.18663E-03   -0.60831E-05    48   0.222E-02    0.207E-02
DAV:  16    -0.662612344810E+02   -0.12962E-03   -0.36802E-05    56   0.173E-02    0.129E-02
DAV:  17    -0.662613205939E+02   -0.86113E-04   -0.23630E-05    48   0.134E-02
  23 F= -.66261321E+02 E0= -.66181514E+02  d E =-.417568E+01
       N       E                     dE             d eps       ncg     rms          rms(c)
DAV:   1    -0.681407616279E+02   -0.18795E+01   -0.81296E+01   112   0.802E+01    0.295E+00
DAV:   2    -0.708125907466E+02   -0.26718E+01   -0.15170E+01   112   0.161E+01    0.210E+01
DAV:   3    -0.688012330926E+02    0.20114E+01   -0.10928E+01   152   0.798E+00    0.229E+00
DAV:   4    -0.688812782878E+02   -0.80045E-01   -0.13531E+00   144   0.194E+00    0.296E+00
DAV:   5    -0.689057565474E+02   -0.24478E-01   -0.18203E+00   136   0.162E+00    0.531E+00
DAV:   6    -0.688086246816E+02    0.97132E-01   -0.18618E+00   144   0.194E+00    0.200E+00
DAV:   7    -0.688131656478E+02   -0.45410E-02   -0.10779E-01   136   0.815E-01    0.519E-01
DAV:   8    -0.688164181374E+02   -0.32525E-02   -0.23260E-02   144   0.476E-01    0.331E-01
DAV:   9    -0.688169333934E+02   -0.51526E-03   -0.59679E-03   128   0.224E-01    0.132E-01
DAV:  10    -0.688174260930E+02   -0.49270E-03   -0.93385E-04   120   0.976E-02    0.129E-01
DAV:  11    -0.688176138298E+02   -0.18774E-03   -0.26595E-04    72   0.551E-02    0.510E-02
DAV:  12    -0.688178342220E+02   -0.22039E-03   -0.13293E-04    88   0.343E-02    0.299E-02
DAV:  13    -0.688179602123E+02   -0.12599E-03   -0.39043E-05    72   0.226E-02    0.159E-02
DAV:  14    -0.688181194891E+02   -0.15928E-03   -0.36832E-05    72   0.186E-02    0.127E-02
DAV:  15    -0.688182568612E+02   -0.13737E-03   -0.31145E-05    72   0.145E-02    0.106E-02
DAV:  16    -0.688183039750E+02   -0.47114E-04   -0.11057E-05    56   0.979E-03
  24 F= -.68818304E+02 E0= -.68742160E+02  d E =-.255698E+01
       N       E                     dE             d eps       ncg     rms          rms(c)
DAV:   1    -0.627881057292E+02    0.60302E+01   -0.63699E+02   120   0.198E+02    0.762E+00
DAV:   2    -0.752817266340E+02   -0.12494E+02   -0.10332E+02   112   0.473E+01    0.283E+01
DAV:   3    -0.708626250309E+02    0.44191E+01   -0.34872E+01   160   0.236E+01    0.693E+00
DAV:   4    -0.702102889261E+02    0.65234E+00   -0.88345E+00   136   0.615E+00    0.421E+00
DAV:   5    -0.700302003097E+02    0.18009E+00   -0.18964E+00   136   0.375E+00    0.303E+00
DAV:   6    -0.707883638846E+02   -0.75816E+00   -0.52021E+00   136   0.400E+00    0.145E+01
DAV:   7    -0.699413545090E+02    0.84701E+00   -0.88987E+00   152   0.416E+00    0.186E+00
DAV:   8    -0.699928531018E+02   -0.51499E-01   -0.20909E-01   152   0.129E+00    0.799E-01
DAV:   9    -0.699908933814E+02    0.19597E-02   -0.65722E-02   152   0.673E-01    0.424E-01
DAV:  10    -0.699922527601E+02   -0.13594E-02   -0.16516E-02   144   0.292E-01    0.305E-01
DAV:  11    -0.699937448536E+02   -0.14921E-02   -0.41538E-03   136   0.174E-01    0.130E-01
DAV:  12    -0.699947547667E+02   -0.10099E-02   -0.74798E-04   112   0.891E-02    0.640E-02
DAV:  13    -0.699951498632E+02   -0.39510E-03   -0.19015E-04    72   0.509E-02    0.282E-02
DAV:  14    -0.699956622709E+02   -0.51241E-03   -0.13754E-04    88   0.320E-02    0.161E-02
DAV:  15    -0.699961174230E+02   -0.45515E-03   -0.51852E-05    80   0.229E-02    0.129E-02
DAV:  16    -0.699966577381E+02   -0.54032E-03   -0.12222E-04    88   0.224E-02    0.110E-02
DAV:  17    -0.699969088696E+02   -0.25113E-03   -0.21026E-05    72   0.138E-02    0.639E-03
DAV:  18    -0.699970764932E+02   -0.16762E-03   -0.28097E-05    72   0.935E-03    0.517E-03
DAV:  19    -0.699972071611E+02   -0.13067E-03   -0.16933E-05    72   0.826E-03    0.304E-03
DAV:  20    -0.699972836629E+02   -0.76502E-04   -0.16629E-05    72   0.735E-03
  25 F= -.69997284E+02 E0= -.69923308E+02  d E =-.373596E+01
       N       E                     dE             d eps       ncg     rms          rms(c)
DAV:   1    -0.697265888881E+02    0.27062E+00   -0.10019E+02   112   0.882E+01    0.277E+00
DAV:   2    -0.707256921304E+02   -0.99910E+00   -0.11423E+01    96   0.168E+01    0.634E+00
DAV:   3    -0.709164670386E+02   -0.19077E+00   -0.71316E+00   160   0.482E+00    0.757E+00
DAV:   4    -0.706861010201E+02    0.23037E+00   -0.38080E+00   152   0.307E+00    0.347E+00
DAV:   5    -0.706415237063E+02    0.44577E-01   -0.99405E-01   152   0.233E+00    0.242E+00
DAV:   6    -0.705990040204E+02    0.42520E-01   -0.30345E-01   152   0.159E+00    0.145E+00
DAV:   7    -0.705975551804E+02    0.14488E-02   -0.20082E-01   144   0.878E-01    0.816E-01
DAV:   8    -0.705976753268E+02   -0.12015E-03   -0.27977E-02   152   0.448E-01    0.378E-01
DAV:   9    -0.705979988878E+02   -0.32356E-03   -0.94545E-03   144   0.294E-01    0.121E-01
DAV:  10    -0.705987730312E+02   -0.77414E-03   -0.15024E-03   128   0.122E-01    0.464E-02
DAV:  11    -0.705991404743E+02   -0.36744E-03   -0.18813E-04    80   0.573E-02    0.292E-02
DAV:  12    -0.705993193853E+02   -0.17891E-03   -0.73359E-05    72   0.337E-02    0.195E-02
DAV:  13    -0.705994618306E+02   -0.14245E-03   -0.40172E-05    72   0.225E-02    0.928E-03
DAV:  14    -0.705995946029E+02   -0.13277E-03   -0.26549E-05    72   0.159E-02    0.896E-03
DAV:  15    -0.705996901168E+02   -0.95514E-04   -0.18546E-05    72   0.122E-02
  26 F= -.70599690E+02 E0= -.70527026E+02  d E =-.433837E+01
       N       E                     dE             d eps       ncg     rms          rms(c)
DAV:   1    -0.719634608450E+02   -0.13639E+01   -0.12048E+01   112   0.268E+01    0.131E+00
DAV:   2    -0.720551833078E+02   -0.91722E-01   -0.16130E+00   112   0.522E+00    0.201E+00
DAV:   3    -0.720290072969E+02    0.26176E-01   -0.41733E-01   144   0.195E+00    0.199E+00
DAV:   4    -0.720056160290E+02    0.23391E-01   -0.27573E-01   152   0.146E+00    0.164E+00
DAV:   5    -0.720334214553E+02   -0.27805E-01   -0.43661E-01   152   0.104E+00    0.330E+00
DAV:   6    -0.719813424711E+02    0.52079E-01   -0.38999E-01   144   0.105E+00    0.640E-01
DAV:   7    -0.719924740587E+02   -0.11132E-01   -0.39210E-02   128   0.362E-01    0.292E-01
DAV:   8    -0.719928825827E+02   -0.40852E-03   -0.55040E-03   144   0.219E-01    0.105E-01
DAV:   9    -0.719930988921E+02   -0.21631E-03   -0.64019E-04   120   0.909E-02    0.637E-02
DAV:  10    -0.719932022242E+02   -0.10333E-03   -0.99845E-05    72   0.407E-02    0.192E-02
DAV:  11    -0.719932807306E+02   -0.78506E-04   -0.53884E-05    72   0.255E-02
  27 F= -.71993281E+02 E0= -.71921376E+02  d E =-.139359E+01
       N       E                     dE             d eps       ncg     rms          rms(c)
DAV:   1    -0.736098085369E+02   -0.16166E+01   -0.71030E+01   112   0.648E+01    0.294E+00
DAV:   2    -0.743565151304E+02   -0.74671E+00   -0.10794E+01   104   0.128E+01    0.615E+00
DAV:   3    -0.742320246060E+02    0.12449E+00   -0.67256E+00   152   0.500E+00    0.712E+00
DAV:   4    -0.739763499340E+02    0.25567E+00   -0.36739E+00   152   0.367E+00    0.342E+00
DAV:   5    -0.738816222649E+02    0.94728E-01   -0.86928E-01   144   0.281E+00    0.182E+00
DAV:   6    -0.738583576601E+02    0.23265E-01   -0.28361E-01   136   0.173E+00    0.705E-01
DAV:   7    -0.738619562831E+02   -0.35986E-02   -0.70769E-02   136   0.818E-01    0.552E-01
DAV:   8    -0.738604116522E+02    0.15446E-02   -0.31367E-02   144   0.326E-01    0.363E-01
DAV:   9    -0.738605884728E+02   -0.17682E-03   -0.95555E-03   144   0.235E-01    0.995E-02
DAV:  10    -0.738611487242E+02   -0.56025E-03   -0.70981E-04   112   0.841E-02    0.406E-02
DAV:  11    -0.738614086628E+02   -0.25994E-03   -0.10829E-04    72   0.463E-02    0.300E-02
DAV:  12    -0.738616099242E+02   -0.20126E-03   -0.81739E-05    72   0.312E-02    0.161E-02
DAV:  13    -0.738617396260E+02   -0.12970E-03   -0.38647E-05    64   0.196E-02    0.695E-03
DAV:  14    -0.738618809457E+02   -0.14132E-03   -0.27934E-05    56   0.142E-02    0.662E-03
DAV:  15    -0.738619833806E+02   -0.10243E-03   -0.22832E-05    48   0.114E-02    0.304E-03
DAV:  16    -0.738620472620E+02   -0.63881E-04   -0.14605E-05    56   0.905E-03
  28 F= -.73862047E+02 E0= -.73790508E+02  d E =-.326236E+01
       N       E                     dE             d eps       ncg     rms          rms(c)
DAV:   1    -0.727877825540E+02    0.10742E+01   -0.26383E+02   112   0.122E+02    0.556E+00
DAV:   2    -0.790848381647E+02   -0.62971E+01   -0.55973E+01   136   0.266E+01    0.274E+01
DAV:   3    -0.750116662838E+02    0.40732E+01   -0.37822E+01   152   0.143E+01    0.694E+00
DAV:   4    -0.742779254645E+02    0.73374E+00   -0.30901E+00   152   0.515E+00    0.443E+00
DAV:   5    -0.743207010583E+02   -0.42776E-01   -0.30783E+00   144   0.479E+00    0.735E+00
DAV:   6    -0.740636857239E+02    0.25702E+00   -0.30556E+00   144   0.453E+00    0.172E+00
DAV:   7    -0.740503094358E+02    0.13376E-01   -0.28015E-01   136   0.145E+00    0.730E-01
DAV:   8    -0.740558123395E+02   -0.55029E-02   -0.32778E-02   144   0.618E-01    0.379E-01
DAV:   9    -0.740594641543E+02   -0.36518E-02   -0.10096E-02   144   0.314E-01    0.208E-01
DAV:  10    -0.740599696399E+02   -0.50549E-03   -0.73840E-03   136   0.141E-01    0.156E-01
DAV:  11    -0.740604021548E+02   -0.43251E-03   -0.31135E-03    96   0.900E-02    0.816E-02
DAV:  12    -0.740608561358E+02   -0.45398E-03   -0.48000E-04    80   0.576E-02    0.345E-02
DAV:  13    -0.740611752761E+02   -0.31914E-03   -0.13429E-04    80   0.365E-02    0.189E-02
DAV:  14    -0.740614561330E+02   -0.28086E-03   -0.49199E-05    72   0.238E-02    0.106E-02
DAV:  15    -0.740617431391E+02   -0.28701E-03   -0.69084E-05    80   0.190E-02    0.588E-03
DAV:  16    -0.740618904890E+02   -0.14735E-03   -0.22257E-05    72   0.125E-02    0.279E-03
DAV:  17    -0.740620379694E+02   -0.14748E-03   -0.32285E-05    72   0.107E-02    0.293E-03
DAV:  18    -0.740621044269E+02   -0.66457E-04   -0.16597E-05    72   0.802E-03
  29 F= -.74062104E+02 E0= -.73987234E+02  d E =-.346241E+01
       N       E                     dE             d eps       ncg     rms          rms(c)
DAV:   1    -0.741375494164E+02   -0.75511E-01   -0.32099E+01   104   0.454E+01    0.198E+00
DAV:   2    -0.752950358132E+02   -0.11575E+01   -0.11106E+01   152   0.988E+00    0.956E+00
DAV:   3    -0.743463949695E+02    0.94864E+00   -0.46842E+00   144   0.470E+00    0.250E+00
DAV:   4    -0.743472124737E+02   -0.81750E-03   -0.69908E-01   144   0.185E+00    0.141E+00
DAV:   5    -0.743411331240E+02    0.60793E-02   -0.28306E-01   160   0.144E+00    0.128E+00
DAV:   6    -0.743348794406E+02    0.62537E-02   -0.15129E-01   144   0.111E+00    0.116E+00
DAV:   7    -0.743283129245E+02    0.65665E-02   -0.51350E-02   136   0.588E-01    0.288E-01
DAV:   8    -0.743310160795E+02   -0.27032E-02   -0.13698E-02   128   0.231E-01    0.174E-01
DAV:   9    -0.743312030991E+02   -0.18702E-03   -0.30346E-03   144   0.145E-01    0.884E-02
DAV:  10    -0.743314569089E+02   -0.25381E-03   -0.45006E-04    80   0.649E-02    0.364E-02
DAV:  11    -0.743316163372E+02   -0.15943E-03   -0.10916E-04    72   0.454E-02    0.202E-02
DAV:  12    -0.743316704235E+02   -0.54086E-04   -0.42283E-05    72   0.288E-02
  30 F= -.74331670E+02 E0= -.74259677E+02  d E =-.373198E+01
       N       E                     dE             d eps       ncg     rms          rms(c)
DAV:   1    -0.751277176769E+02   -0.79610E+00   -0.35810E+01   120   0.551E+01    0.225E+00
DAV:   2    -0.763673092040E+02   -0.12396E+01   -0.12938E+01   120   0.111E+01    0.106E+01
DAV:   3    -0.755783392083E+02    0.78897E+00   -0.82601E+00   152   0.566E+00    0.444E+00
DAV:   4    -0.754386278898E+02    0.13971E+00   -0.15106E+00   152   0.301E+00    0.215E+00
DAV:   5    -0.754038880683E+02    0.34740E-01   -0.42808E-01   144   0.200E+00    0.126E+00
DAV:   6    -0.753968671557E+02    0.70209E-02   -0.11537E-01   144   0.101E+00    0.485E-01
DAV:   7    -0.753996133091E+02   -0.27462E-02   -0.31614E-02   128   0.602E-01    0.335E-01
DAV:   8    -0.754000825292E+02   -0.46922E-03   -0.10384E-02   136   0.309E-01    0.161E-01
DAV:   9    -0.753999806898E+02    0.10184E-03   -0.35698E-03   112   0.103E-01    0.602E-02
DAV:  10    -0.754001567669E+02   -0.17608E-03   -0.32385E-04    72   0.595E-02    0.294E-02
DAV:  11    -0.754002355452E+02   -0.78778E-04   -0.10825E-04    72   0.402E-02
  31 F= -.75400236E+02 E0= -.75328331E+02  d E =-.106857E+01
       N       E                     dE             d eps       ncg     rms          rms(c)
DAV:   1    -0.752583156472E+02    0.14184E+00   -0.17602E+02   112   0.115E+02    0.478E+00
DAV:   2    -0.805865972237E+02   -0.53283E+01   -0.47794E+01   112   0.265E+01    0.233E+01
DAV:   3    -0.773890707621E+02    0.31975E+01   -0.29756E+01   152   0.144E+01    0.612E+00
DAV:   4    -0.768389071038E+02    0.55016E+00   -0.40345E+00   144   0.518E+00    0.388E+00
DAV:   5    -0.767129382878E+02    0.12597E+00   -0.15021E+00   152   0.362E+00    0.340E+00
DAV:   6    -0.766579117546E+02    0.55027E-01   -0.86147E-01   144   0.245E+00    0.139E+00
DAV:   7    -0.766487836310E+02    0.91281E-02   -0.24246E-01   144   0.136E+00    0.695E-01
DAV:   8    -0.766530783645E+02   -0.42947E-02   -0.48608E-02   144   0.670E-01    0.407E-01
DAV:   9    -0.766545194211E+02   -0.14411E-02   -0.28465E-02   128   0.294E-01    0.257E-01
DAV:  10    -0.766549527815E+02   -0.43336E-03   -0.51967E-03   128   0.169E-01    0.789E-02
DAV:  11    -0.766555765012E+02   -0.62372E-03   -0.46455E-04    96   0.751E-02    0.397E-02
DAV:  12    -0.766558843029E+02   -0.30780E-03   -0.11942E-04    80   0.428E-02    0.218E-02
DAV:  13    -0.766561406527E+02   -0.25635E-03   -0.55980E-05    72   0.256E-02    0.124E-02
DAV:  14    -0.766564171701E+02   -0.27652E-03   -0.54923E-05    80   0.190E-02    0.551E-03
DAV:  15    -0.766565942329E+02   -0.17706E-03   -0.20358E-05    72   0.127E-02    0.412E-03
DAV:  16    -0.766567553999E+02   -0.16117E-03   -0.27581E-05    80   0.105E-02    0.273E-03
DAV:  17    -0.766568419764E+02   -0.86577E-04   -0.98412E-06    72   0.724E-03
  32 F= -.76656842E+02 E0= -.76582880E+02  d E =-.232517E+01
       N       E                     dE             d eps       ncg     rms          rms(c)
DAV:   1    -0.684256576183E+02    0.82311E+01   -0.74534E+02   120   0.216E+02    0.881E+00
DAV:   2    -0.807990574842E+02   -0.12373E+02   -0.11776E+02    96   0.524E+01    0.249E+01
DAV:   3    -0.765953860511E+02    0.42037E+01   -0.48288E+01   136   0.277E+01    0.716E+00
DAV:   4    -0.760180160917E+02    0.57737E+00   -0.11186E+01   136   0.745E+00    0.506E+00
DAV:   5    -0.756659266195E+02    0.35209E+00   -0.25471E+00   152   0.522E+00    0.473E+00
DAV:   6    -0.755421956900E+02    0.12373E+00   -0.27586E+00   136   0.469E+00    0.245E+00
DAV:   7    -0.754841399722E+02    0.58056E-01   -0.65046E-01   136   0.228E+00    0.119E+00
DAV:   8    -0.754947257717E+02   -0.10586E-01   -0.28006E-01   136   0.107E+00    0.877E-01
DAV:   9    -0.754907963628E+02    0.39294E-02   -0.10757E-01   144   0.717E-01    0.391E-01
DAV:  10    -0.754915111805E+02   -0.71482E-03   -0.30453E-02   144   0.360E-01    0.193E-01
DAV:  11    -0.754936243484E+02   -0.21132E-02   -0.44260E-03   112   0.179E-01    0.908E-02
DAV:  12    -0.754943582823E+02   -0.73393E-03   -0.79133E-04   120   0.983E-02    0.417E-02
DAV:  13    -0.754948535195E+02   -0.49524E-03   -0.60526E-04    80   0.462E-02    0.527E-02
DAV:  14    -0.754952158129E+02   -0.36229E-03   -0.38579E-04    80   0.291E-02    0.272E-02
DAV:  15    -0.754956245583E+02   -0.40875E-03   -0.69141E-05    80   0.237E-02    0.144E-02
DAV:  16    -0.754960545808E+02   -0.43002E-03   -0.10018E-04    80   0.215E-02    0.907E-03
DAV:  17    -0.754962851891E+02   -0.23061E-03   -0.33865E-05    80   0.136E-02    0.497E-03
DAV:  18    -0.754964513593E+02   -0.16617E-03   -0.17872E-05    80   0.981E-03    0.295E-03
DAV:  19    -0.754965646187E+02   -0.11326E-03   -0.15222E-05    72   0.800E-03    0.176E-03
DAV:  20    -0.754966069983E+02   -0.42380E-04   -0.64971E-06    72   0.585E-03
  33 F= -.75496607E+02 E0= -.75428761E+02  d E =-.116494E+01
       N       E                     dE             d eps       ncg     rms          rms(c)
DAV:   1    -0.726161108266E+02    0.28805E+01   -0.41237E+02   120   0.170E+02    0.613E+00
DAV:   2    -0.787167170518E+02   -0.61006E+01   -0.70515E+01    96   0.399E+01    0.116E+01
DAV:   3    -0.782978722084E+02    0.41884E+00   -0.22698E+01   152   0.152E+01    0.172E+01
DAV:   4    -0.772295525842E+02    0.10683E+01   -0.19548E+01   136   0.919E+00    0.577E+00
DAV:   5    -0.769233567071E+02    0.30620E+00   -0.38546E+00   144   0.438E+00    0.346E+00
DAV:   6    -0.768864702980E+02    0.36886E-01   -0.22471E+00   152   0.249E+00    0.260E+00
DAV:   7    -0.768395386611E+02    0.46932E-01   -0.59822E-01   136   0.200E+00    0.113E+00
DAV:   8    -0.768505283089E+02   -0.10990E-01   -0.10064E-01   128   0.907E-01    0.933E-01
DAV:   9    -0.768463269382E+02    0.42014E-02   -0.61907E-02   136   0.519E-01    0.437E-01
DAV:  10    -0.768456954097E+02    0.63153E-03   -0.13109E-02   144   0.285E-01    0.229E-01
DAV:  11    -0.768464561892E+02   -0.76078E-03   -0.15647E-03   120   0.141E-01    0.107E-01
DAV:  12    -0.768468392415E+02   -0.38305E-03   -0.49052E-04   104   0.781E-02    0.573E-02
DAV:  13    -0.768472180508E+02   -0.37881E-03   -0.25443E-04    80   0.520E-02    0.253E-02
DAV:  14    -0.768475351457E+02   -0.31709E-03   -0.59143E-05    64   0.294E-02    0.151E-02
DAV:  15    -0.768478233859E+02   -0.28824E-03   -0.49226E-05    80   0.211E-02    0.124E-02
DAV:  16    -0.768479898529E+02   -0.16647E-03   -0.16795E-05    56   0.145E-02    0.571E-03
DAV:  17    -0.768481959825E+02   -0.20613E-03   -0.36412E-05    72   0.128E-02    0.543E-03
DAV:  18    -0.768483106271E+02   -0.11464E-03   -0.15020E-05    72   0.914E-03    0.386E-03
DAV:  19    -0.768483520043E+02   -0.41377E-04   -0.81703E-06    56   0.654E-03
  34 F= -.76848352E+02 E0= -.76774438E+02  d E =-.251668E+01
       N       E                     dE             d eps       ncg     rms          rms(c)
DAV:   1    -0.774690691680E+02   -0.62076E+00   -0.10518E+02   120   0.892E+01    0.385E+00
DAV:   2    -0.790207793437E+02   -0.15517E+01   -0.21363E+01    96   0.172E+01    0.620E+00
DAV:   3    -0.784155637549E+02    0.60522E+00   -0.82525E+00   144   0.540E+00    0.387E+00
DAV:   4    -0.782288596196E+02    0.18670E+00   -0.16183E+00   128   0.378E+00    0.257E+00
DAV:   5    -0.782533714315E+02   -0.24512E-01   -0.90556E-01   144   0.289E+00    0.274E+00
DAV:   6    -0.781935616642E+02    0.59810E-01   -0.66990E-01   144   0.221E+00    0.116E+00
DAV:   7    -0.781865749921E+02    0.69867E-02   -0.11468E-01   128   0.117E+00    0.498E-01
DAV:   8    -0.781880919690E+02   -0.15170E-02   -0.28572E-02   120   0.521E-01    0.311E-01
DAV:   9    -0.781879745390E+02    0.11743E-03   -0.10175E-02   152   0.267E-01    0.109E-01
DAV:  10    -0.781884273818E+02   -0.45284E-03   -0.10443E-03   120   0.997E-02    0.514E-02
DAV:  11    -0.781886763233E+02   -0.24894E-03   -0.19665E-04    64   0.511E-02    0.423E-02
DAV:  12    -0.781888300620E+02   -0.15374E-03   -0.11205E-04    72   0.371E-02    0.126E-02
DAV:  13    -0.781889708782E+02   -0.14082E-03   -0.26910E-05    64   0.203E-02    0.880E-03
DAV:  14    -0.781891192629E+02   -0.14838E-03   -0.25757E-05    72   0.148E-02    0.537E-03
DAV:  15    -0.781892484037E+02   -0.12914E-03   -0.15825E-05    72   0.103E-02    0.242E-03
DAV:  16    -0.781893526691E+02   -0.10427E-03   -0.13428E-05    72   0.789E-03    0.170E-03
DAV:  17    -0.781894107397E+02   -0.58071E-04   -0.70313E-06    56   0.585E-03
  35 F= -.78189411E+02 E0= -.78120388E+02  d E =-.134106E+01
       N       E                     dE             d eps       ncg     rms          rms(c)
DAV:   1    -0.781661064479E+02    0.23246E-01   -0.29109E+01   120   0.488E+01    0.218E+00
DAV:   2    -0.786309239509E+02   -0.46482E+00   -0.66473E+00   128   0.930E+00    0.344E+00
DAV:   3    -0.784288914771E+02    0.20203E+00   -0.20195E+00   136   0.323E+00    0.204E+00
DAV:   4    -0.783799606691E+02    0.48931E-01   -0.50025E-01   144   0.193E+00    0.129E+00
DAV:   5    -0.783816410867E+02   -0.16804E-02   -0.23068E-01   136   0.141E+00    0.110E+00
DAV:   6    -0.783795455394E+02    0.20955E-02   -0.15332E-01   152   0.121E+00    0.100E+00
DAV:   7    -0.783710012577E+02    0.85443E-02   -0.57384E-02   136   0.954E-01    0.300E-01
DAV:   8    -0.783713546145E+02   -0.35336E-03   -0.11609E-02   128   0.354E-01    0.144E-01
DAV:   9    -0.783714251159E+02   -0.70501E-04   -0.23363E-03   128   0.134E-01    0.439E-02
DAV:  10    -0.783716220946E+02   -0.19698E-03   -0.13345E-04    72   0.555E-02    0.215E-02
DAV:  11    -0.783717003956E+02   -0.78301E-04   -0.52379E-05    56   0.301E-02
  36 F= -.78371700E+02 E0= -.78305298E+02  d E =-.152335E+01
       N       E                     dE             d eps       ncg     rms          rms(c)
DAV:   1    -0.787243866538E+02   -0.35276E+00   -0.51427E+01   120   0.657E+01    0.264E+00
DAV:   2    -0.795602985880E+02   -0.83591E+00   -0.83060E+00   136   0.131E+01    0.555E+00
DAV:   3    -0.792631277255E+02    0.29717E+00   -0.24730E+00   144   0.631E+00    0.222E+00
DAV:   4    -0.792201364081E+02    0.42991E-01   -0.65461E-01   144   0.248E+00    0.146E+00
DAV:   5    -0.792134289522E+02    0.67075E-02   -0.29872E-01   144   0.179E+00    0.105E+00
DAV:   6    -0.792195732905E+02   -0.61443E-02   -0.30112E-01   144   0.104E+00    0.121E+00
DAV:   7    -0.792033388426E+02    0.16234E-01   -0.13856E-01   152   0.576E-01    0.287E-01
DAV:   8    -0.792041891843E+02   -0.85034E-03   -0.11784E-02   144   0.333E-01    0.121E-01
DAV:   9    -0.792043299778E+02   -0.14079E-03   -0.31094E-03   128   0.116E-01    0.645E-02
DAV:  10    -0.792044953578E+02   -0.16538E-03   -0.24538E-04    64   0.674E-02    0.321E-02
DAV:  11    -0.792046356603E+02   -0.14030E-03   -0.97238E-05    80   0.441E-02    0.144E-02
DAV:  12    -0.792047098781E+02   -0.74218E-04   -0.26557E-05    56   0.283E-02
  37 F= -.79204710E+02 E0= -.79144836E+02  d E =-.833009E+00
       N       E                     dE             d eps       ncg     rms          rms(c)
DAV:   1    -0.786663334317E+02    0.53830E+00   -0.11632E+02   120   0.953E+01    0.424E+00
DAV:   2    -0.802210806605E+02   -0.15547E+01   -0.17214E+01   128   0.193E+01    0.617E+00
DAV:   3    -0.798553999311E+02    0.36568E+00   -0.43735E+00   144   0.871E+00    0.336E+00
DAV:   4    -0.797417616708E+02    0.11364E+00   -0.13932E+00   144   0.401E+00    0.233E+00
DAV:   5    -0.796981231895E+02    0.43638E-01   -0.78842E-01   144   0.288E+00    0.124E+00
DAV:   6    -0.797272278429E+02   -0.29105E-01   -0.71594E-01   152   0.160E+00    0.169E+00
DAV:   7    -0.796830690976E+02    0.44159E-01   -0.34054E-01   144   0.106E+00    0.420E-01
DAV:   8    -0.796835616888E+02   -0.49259E-03   -0.26997E-02   144   0.459E-01    0.167E-01
DAV:   9    -0.796839086243E+02   -0.34694E-03   -0.50822E-03   136   0.160E-01    0.840E-02
DAV:  10    -0.796841992983E+02   -0.29067E-03   -0.48122E-04    96   0.823E-02    0.392E-02
DAV:  11    -0.796844326277E+02   -0.23333E-03   -0.13968E-04    80   0.512E-02    0.162E-02
DAV:  12    -0.796845663700E+02   -0.13374E-03   -0.40787E-05    72   0.314E-02    0.757E-03
DAV:  13    -0.796846934872E+02   -0.12712E-03   -0.23181E-05    72   0.169E-02    0.370E-03
DAV:  14    -0.796848249995E+02   -0.13151E-03   -0.16414E-05    64   0.117E-02    0.286E-03
DAV:  15    -0.796849214904E+02   -0.96491E-04   -0.16196E-05    72   0.961E-03
  38 F= -.79684921E+02 E0= -.79633203E+02  d E =-.131322E+01
       N       E                     dE             d eps       ncg     rms          rms(c)
DAV:   1    -0.800586303020E+02   -0.37381E+00   -0.57631E+01   112   0.613E+01    0.259E+00
DAV:   2    -0.806935209149E+02   -0.63489E+00   -0.88984E+00   112   0.125E+01    0.365E+00
DAV:   3    -0.804467738624E+02    0.24675E+00   -0.25745E+00   144   0.411E+00    0.160E+00
DAV:   4    -0.804308734289E+02    0.15900E-01   -0.46166E-01   144   0.235E+00    0.126E+00
DAV:   5    -0.804157444755E+02    0.15129E-01   -0.25987E-01   152   0.177E+00    0.751E-01
DAV:   6    -0.804167492617E+02   -0.10048E-02   -0.77574E-02   152   0.121E+00    0.698E-01
DAV:   7    -0.804117790803E+02    0.49702E-02   -0.47934E-02   136   0.776E-01    0.259E-01
DAV:   8    -0.804114320369E+02    0.34704E-03   -0.89227E-03   144   0.255E-01    0.107E-01
DAV:   9    -0.804115986944E+02   -0.16666E-03   -0.21087E-03   120   0.106E-01    0.469E-02
DAV:  10    -0.804117568512E+02   -0.15816E-03   -0.22072E-04    72   0.543E-02    0.217E-02
DAV:  11    -0.804119551760E+02   -0.19832E-03   -0.91648E-05    72   0.359E-02    0.106E-02
DAV:  12    -0.804120758280E+02   -0.12065E-03   -0.24062E-05    56   0.218E-02    0.617E-03
DAV:  13    -0.804122764312E+02   -0.20060E-03   -0.37393E-05    72   0.167E-02    0.423E-03
DAV:  14    -0.804123721713E+02   -0.95740E-04   -0.12424E-05    56   0.105E-02
  39 F= -.80412372E+02 E0= -.80367713E+02  d E =-.727451E+00
       N       E                     dE             d eps       ncg     rms          rms(c)
DAV:   1    -0.804290937442E+02   -0.16817E-01   -0.14639E+01   112   0.311E+01    0.135E+00
DAV:   2    -0.806149104008E+02   -0.18582E+00   -0.25403E+00   136   0.635E+00    0.234E+00
DAV:   3    -0.805206812822E+02    0.94229E-01   -0.91386E-01   152   0.251E+00    0.827E-01
DAV:   4    -0.805187713751E+02    0.19099E-02   -0.13201E-01   144   0.126E+00    0.703E-01
DAV:   5    -0.805160134505E+02    0.27579E-02   -0.70009E-02   144   0.106E+00    0.527E-01
DAV:   6    -0.805150902295E+02    0.92322E-03   -0.38791E-02   144   0.760E-01    0.416E-01
DAV:   7    -0.805129764346E+02    0.21138E-02   -0.19677E-02   136   0.415E-01    0.118E-01
DAV:   8    -0.805131514547E+02   -0.17502E-03   -0.26729E-03   120   0.126E-01    0.594E-02
DAV:   9    -0.805131983560E+02   -0.46901E-04   -0.46561E-04    88   0.627E-02
  40 F= -.80513198E+02 E0= -.80469100E+02  d E =-.828277E+00
       N       E                     dE             d eps       ncg     rms          rms(c)
DAV:   1    -0.807731618700E+02   -0.26001E+00   -0.30517E+01   120   0.463E+01    0.243E+00
DAV:   2    -0.813471929861E+02   -0.57403E+00   -0.57305E+00   136   0.105E+01    0.544E+00
DAV:   3    -0.809458688732E+02    0.40132E+00   -0.20872E+00   144   0.600E+00    0.170E+00
DAV:   4    -0.809529106836E+02   -0.70418E-02   -0.57370E-01   144   0.177E+00    0.129E+00
DAV:   5    -0.809266724468E+02    0.26238E-01   -0.20915E-01   144   0.139E+00    0.482E-01
DAV:   6    -0.809299464885E+02   -0.32740E-02   -0.50026E-02   136   0.561E-01    0.343E-01
DAV:   7    -0.809287835106E+02    0.11630E-02   -0.26641E-02   144   0.465E-01    0.288E-01
DAV:   8    -0.809281755610E+02    0.60795E-03   -0.81632E-03   136   0.350E-01    0.102E-01
[...]
DAV:   2    -0.958746106344E+02   -0.12568E+00   -0.16557E+00   112   0.670E+00    0.766E-01
DAV:   3    -0.958770632789E+02   -0.24526E-02   -0.16318E-01   160   0.271E+00    0.627E-01
DAV:   4    -0.958717170902E+02    0.53462E-02   -0.44635E-02   136   0.137E+00    0.294E-01
DAV:   5    -0.958716118257E+02    0.10526E-03   -0.82430E-03   128   0.629E-01    0.125E-01
DAV:   6    -0.958719378008E+02   -0.32598E-03   -0.32284E-03   136   0.341E-01    0.999E-02
DAV:   7    -0.958718514621E+02    0.86339E-04   -0.89802E-04   112   0.165E-01
 230 F= -.95871851E+02 E0= -.95871612E+02  d E =-.154327E+00
       N       E                     dE             d eps       ncg     rms          rms(c)
DAV:   1    -0.959219076828E+02   -0.49970E-01   -0.20636E+00   112   0.121E+01    0.366E-01
DAV:   2    -0.959381071371E+02   -0.16199E-01   -0.21120E-01   104   0.225E+00    0.194E-01
DAV:   3    -0.959384083655E+02   -0.30123E-03   -0.99149E-03   152   0.521E-01    0.127E-01
DAV:   4    -0.959386183870E+02   -0.21002E-03   -0.27059E-03   136   0.317E-01    0.127E-01
DAV:   5    -0.959384809603E+02    0.13743E-03   -0.15559E-03   128   0.250E-01    0.308E-02
DAV:   6    -0.959385468089E+02   -0.65849E-04   -0.24250E-04    88   0.103E-01
 231 F= -.95938547E+02 E0= -.95938353E+02  d E =-.666953E-01
       N       E                     dE             d eps       ncg     rms          rms(c)
DAV:   1    -0.958895625753E+02    0.48918E-01   -0.18503E+01   112   0.360E+01    0.108E+00
DAV:   2    -0.960342499897E+02   -0.14469E+00   -0.18294E+00    96   0.673E+00    0.573E-01
DAV:   3    -0.960360723733E+02   -0.18224E-02   -0.85992E-02   152   0.152E+00    0.372E-01
DAV:   4    -0.960378733694E+02   -0.18010E-02   -0.26191E-02   136   0.110E+00    0.435E-01
DAV:   5    -0.960354412154E+02    0.24322E-02   -0.17108E-02   136   0.103E+00    0.100E-01
DAV:   6    -0.960357635330E+02   -0.32232E-03   -0.26698E-03   128   0.267E-01    0.811E-02
DAV:   7    -0.960357155385E+02    0.47995E-04   -0.77032E-04   104   0.146E-01
 232 F= -.96035716E+02 E0= -.96035631E+02  d E =-.163864E+00
       N       E                     dE             d eps       ncg     rms          rms(c)
DAV:   1    -0.960986433388E+02   -0.62880E-01   -0.26822E+00   112   0.128E+01    0.430E-01
DAV:   2    -0.961121926493E+02   -0.13549E-01   -0.20605E-01   112   0.231E+00    0.264E-01
DAV:   3    -0.961126793675E+02   -0.48672E-03   -0.18930E-02   144   0.862E-01    0.264E-01
DAV:   4    -0.961118795721E+02    0.79980E-03   -0.76883E-03   136   0.603E-01    0.113E-01
DAV:   5    -0.961120182149E+02   -0.13864E-03   -0.16651E-03   128   0.260E-01    0.584E-02
DAV:   6    -0.961120648832E+02   -0.46668E-04   -0.54380E-04   104   0.144E-01
 233 F= -.96112065E+02 E0= -.96112007E+02  d E =-.763493E-01
       N       E                     dE             d eps       ncg     rms          rms(c)
DAV:   1    -0.961348169256E+02   -0.22799E-01   -0.82763E+00   112   0.224E+01    0.743E-01
DAV:   2    -0.961786443005E+02   -0.43827E-01   -0.63128E-01   112   0.408E+00    0.463E-01
DAV:   3    -0.961797037121E+02   -0.10594E-02   -0.55616E-02   152   0.154E+00    0.452E-01
DAV:   4    -0.961772906308E+02    0.24131E-02   -0.22397E-02   136   0.109E+00    0.202E-01
DAV:   5    -0.961774065844E+02   -0.11595E-03   -0.50006E-03   136   0.461E-01    0.937E-02
DAV:   6    -0.961775247255E+02   -0.11814E-03   -0.15495E-03   128   0.232E-01    0.656E-02
DAV:   7    -0.961775139876E+02    0.10738E-04   -0.38559E-04    96   0.110E-01
 234 F= -.96177514E+02 E0= -.96177490E+02  d E =-.141798E+00
       N       E                     dE             d eps       ncg     rms          rms(c)
DAV:   1    -0.961776300134E+02   -0.10529E-03   -0.38640E-01   112   0.485E+00    0.159E-01
DAV:   2    -0.961797408341E+02   -0.21108E-02   -0.29751E-02   112   0.882E-01    0.996E-02
DAV:   3    -0.961798301493E+02   -0.89315E-04   -0.24399E-03   152   0.317E-01    0.940E-02
DAV:   4    -0.961797622212E+02    0.67928E-04   -0.10019E-03   120   0.212E-01    0.462E-02
DAV:   5    -0.961798087454E+02   -0.46524E-04   -0.19984E-04    80   0.102E-01
 235 F= -.96179809E+02 E0= -.96179790E+02  d E =-.144093E+00
       N       E                     dE             d eps       ncg     rms          rms(c)
DAV:   1    -0.962051220021E+02   -0.25360E-01   -0.14575E+00    96   0.956E+00    0.318E-01
DAV:   2    -0.962129181816E+02   -0.77962E-02   -0.11542E-01   112   0.178E+00    0.188E-01
DAV:   3    -0.962132423809E+02   -0.32420E-03   -0.10545E-02   152   0.652E-01    0.181E-01
DAV:   4    -0.962128872135E+02    0.35517E-03   -0.40224E-03   136   0.428E-01    0.892E-02
DAV:   5    -0.962129165830E+02   -0.29370E-04   -0.79931E-04   120   0.189E-01
 236 F= -.96212917E+02 E0= -.96212900E+02  d E =-.331078E-01
       N       E                     dE             d eps       ncg     rms          rms(c)
DAV:   1    -0.962128155423E+02    0.71671E-04   -0.32160E+00    96   0.142E+01    0.472E-01
DAV:   2    -0.962304744834E+02   -0.17659E-01   -0.25506E-01   112   0.265E+00    0.285E-01
DAV:   3    -0.962311054986E+02   -0.63102E-03   -0.23394E-02   152   0.987E-01    0.271E-01
DAV:   4    -0.962302855510E+02    0.81995E-03   -0.89871E-03   136   0.657E-01    0.133E-01
DAV:   5    -0.962303222710E+02   -0.36720E-04   -0.18632E-03   128   0.292E-01    0.523E-02
DAV:   6    -0.962304045938E+02   -0.82323E-04   -0.51849E-04   120   0.135E-01
 237 F= -.96230405E+02 E0= -.96230391E+02  d E =-.505958E-01
       N       E                     dE             d eps       ncg     rms          rms(c)
DAV:   1    -0.962513638124E+02   -0.21042E-01   -0.17062E+00    96   0.903E+00    0.333E-01
DAV:   2    -0.962582527783E+02   -0.68890E-02   -0.10515E-01   112   0.160E+00    0.234E-01
DAV:   3    -0.962581456489E+02    0.10713E-03   -0.99750E-03   144   0.644E-01    0.179E-01
DAV:   4    -0.962578331487E+02    0.31250E-03   -0.43208E-03   136   0.401E-01    0.983E-02
DAV:   5    -0.962579059125E+02   -0.72764E-04   -0.15065E-03   136   0.271E-01    0.731E-02
DAV:   6    -0.962578583072E+02    0.47605E-04   -0.51324E-04   104   0.150E-01
 238 F= -.96257858E+02 E0= -.96257843E+02  d E =-.274537E-01
       N       E                     dE             d eps       ncg     rms          rms(c)
DAV:   1    -0.962602962139E+02   -0.23903E-02   -0.20760E+00    96   0.997E+00    0.366E-01
DAV:   2    -0.962688026010E+02   -0.85064E-02   -0.12764E-01   112   0.177E+00    0.256E-01
DAV:   3    -0.962686592037E+02    0.14340E-03   -0.11883E-02   144   0.709E-01    0.195E-01
DAV:   4    -0.962682846294E+02    0.37457E-03   -0.51242E-03   136   0.440E-01    0.107E-01
DAV:   5    -0.962683582901E+02   -0.73661E-04   -0.17886E-03   136   0.298E-01    0.792E-02
DAV:   6    -0.962682969603E+02    0.61330E-04   -0.59625E-04   104   0.164E-01
 239 F= -.96268297E+02 E0= -.96268281E+02  d E =-.378924E-01
       N       E                     dE             d eps       ncg     rms          rms(c)
DAV:   1    -0.962787818725E+02   -0.10424E-01   -0.87009E-01    96   0.672E+00    0.252E-01
DAV:   2    -0.962816558440E+02   -0.28740E-02   -0.49024E-02   112   0.120E+00    0.193E-01
DAV:   3    -0.962816034350E+02    0.52409E-04   -0.62561E-03   144   0.577E-01    0.155E-01
DAV:   4    -0.962813524880E+02    0.25095E-03   -0.29520E-03   136   0.358E-01    0.678E-02
DAV:   5    -0.962813860965E+02   -0.33609E-04   -0.82325E-04   120   0.173E-01
 240 F= -.96281386E+02 E0= -.96281371E+02  d E =-.130891E-01
       N       E                     dE             d eps       ncg     rms          rms(c)
DAV:   1    -0.962821623439E+02   -0.80986E-03   -0.15684E-01    96   0.285E+00    0.116E-01
DAV:   2    -0.962827114474E+02   -0.54910E-03   -0.93295E-03   120   0.531E-01    0.101E-01
DAV:   3    -0.962826516010E+02    0.59846E-04   -0.13696E-03   136   0.279E-01    0.678E-02
DAV:   4    -0.962826335876E+02    0.18013E-04   -0.53140E-04   104   0.150E-01
 241 F= -.96282634E+02 E0= -.96282617E+02  d E =-.143366E-01
       N       E                     dE             d eps       ncg     rms          rms(c)
DAV:   1    -0.962874781797E+02   -0.48266E-02   -0.96159E-01   112   0.837E+00    0.266E-01
DAV:   2    -0.962931335440E+02   -0.56554E-02   -0.73995E-02    96   0.145E+00    0.202E-01
DAV:   3    -0.962931893414E+02   -0.55797E-04   -0.67997E-03   152   0.591E-01    0.165E-01
DAV:   4    -0.962929325440E+02    0.25680E-03   -0.28550E-03   136   0.373E-01    0.753E-02
DAV:   5    -0.962929869211E+02   -0.54377E-04   -0.91006E-04   120   0.186E-01
 242 F= -.96292987E+02 E0= -.96292971E+02  d E =-.103533E-01
       N       E                     dE             d eps       ncg     rms          rms(c)
DAV:   1    -0.962928976621E+02    0.34882E-04   -0.21536E-01   112   0.397E+00    0.131E-01
DAV:   2    -0.962941734009E+02   -0.12757E-02   -0.16947E-02   112   0.706E-01    0.115E-01
DAV:   3    -0.962941271485E+02    0.46252E-04   -0.16701E-03   144   0.305E-01    0.741E-02
DAV:   4    -0.962941120264E+02    0.15122E-04   -0.54281E-04    96   0.168E-01
 243 F= -.96294112E+02 E0= -.96294093E+02  d E =-.114784E-01
       N       E                     dE             d eps       ncg     rms          rms(c)
DAV:   1    -0.962973955273E+02   -0.32684E-02   -0.33003E-01   112   0.448E+00    0.161E-01
DAV:   2    -0.962989254169E+02   -0.15299E-02   -0.23083E-02   112   0.822E-01    0.107E-01
DAV:   3    -0.962989557067E+02   -0.30290E-04   -0.26614E-03   152   0.326E-01    0.102E-01
DAV:   4    -0.962988487216E+02    0.10699E-03   -0.11925E-03   120   0.227E-01    0.441E-02
DAV:   5    -0.962988818539E+02   -0.33132E-04   -0.22946E-04    88   0.113E-01
 244 F= -.96298882E+02 E0= -.96298861E+02  d E =-.476983E-02
       N       E                     dE             d eps       ncg     rms          rms(c)
DAV:   1    -0.962990617844E+02   -0.21306E-03   -0.12886E-01   112   0.281E+00    0.984E-02
DAV:   2    -0.962996624082E+02   -0.60062E-03   -0.89170E-03   112   0.505E-01    0.608E-02
DAV:   3    -0.962996834339E+02   -0.21026E-04   -0.80463E-04   136   0.169E-01
 245 F= -.96299683E+02 E0= -.96299662E+02  d E =-.557141E-02
       N       E                     dE             d eps       ncg     rms          rms(c)
DAV:   1    -0.963022433601E+02   -0.25810E-02   -0.30923E-01   104   0.411E+00    0.145E-01
DAV:   2    -0.963036120258E+02   -0.13687E-02   -0.19608E-02   112   0.735E-01    0.878E-02
DAV:   3    -0.963036162136E+02   -0.41878E-05   -0.13472E-03   152   0.187E-01    0.524E-02
DAV:   4    -0.963036419605E+02   -0.25747E-04   -0.41211E-04    96   0.115E-01
 246 F= -.96303642E+02 E0= -.96303620E+02  d E =-.395853E-02
       N       E                     dE             d eps       ncg     rms          rms(c)
DAV:   1    -0.963037526269E+02   -0.13641E-03   -0.12844E-01   104   0.265E+00    0.958E-02
DAV:   2    -0.963043231948E+02   -0.57057E-03   -0.81872E-03   112   0.482E-01    0.652E-02
DAV:   3    -0.963043466456E+02   -0.23451E-04   -0.90314E-04   128   0.201E-01
 247 F= -.96304347E+02 E0= -.96304327E+02  d E =-.466321E-02
       N       E                     dE             d eps       ncg     rms          rms(c)
DAV:   1    -0.963058797306E+02   -0.15565E-02   -0.35110E-01   104   0.444E+00    0.166E-01
DAV:   2    -0.963076304787E+02   -0.17507E-02   -0.23920E-02   104   0.797E-01    0.132E-01
DAV:   3    -0.963075770070E+02    0.53472E-04   -0.27426E-03   136   0.370E-01    0.989E-02
DAV:   4    -0.963075121793E+02    0.64828E-04   -0.11052E-03   120   0.215E-01    0.430E-02
DAV:   5    -0.963075415359E+02   -0.29357E-04   -0.28810E-04    96   0.122E-01
 248 F= -.96307542E+02 E0= -.96307520E+02  d E =-.319489E-02
       N       E                     dE             d eps       ncg     rms          rms(c)
DAV:   1    -0.963075657173E+02   -0.53538E-04   -0.51571E-02   104   0.170E+00    0.659E-02
DAV:   2    -0.963078521329E+02   -0.28642E-03   -0.37656E-03   120   0.323E-01    0.631E-02
DAV:   3    -0.963078176548E+02    0.34478E-04   -0.51421E-04   104   0.165E-01
 249 F= -.96307818E+02 E0= -.96307797E+02  d E =-.347101E-02
       N       E                     dE             d eps       ncg     rms          rms(c)
DAV:   1    -0.963087851814E+02   -0.93305E-03   -0.14666E-01    96   0.286E+00    0.105E-01
DAV:   2    -0.963094235020E+02   -0.63832E-03   -0.95609E-03   112   0.516E-01    0.822E-02
DAV:   3    -0.963093950954E+02    0.28407E-04   -0.11911E-03   136   0.228E-01    0.625E-02
DAV:   4    -0.963093657560E+02    0.29339E-04   -0.37301E-04    88   0.141E-01
 250 F= -.96309366E+02 E0= -.96309343E+02  d E =-.154810E-02
       N       E                     dE             d eps       ncg     rms          rms(c)
DAV:   1    -0.963093871785E+02    0.79169E-05   -0.80302E-03    96   0.678E-01    0.333E-02
DAV:   2    -0.963094459235E+02   -0.58745E-04   -0.73173E-04   128   0.169E-01
 251 F= -.96309446E+02 E0= -.96309423E+02  d E =-.162827E-02
       N       E                     dE             d eps       ncg     rms          rms(c)
DAV:   1    -0.963104714318E+02   -0.10843E-02   -0.10607E-01    96   0.233E+00    0.854E-02
DAV:   2    -0.963108839652E+02   -0.41253E-03   -0.61081E-03   112   0.426E-01    0.618E-02
DAV:   3    -0.963109023736E+02   -0.18408E-04   -0.75965E-04   120   0.198E-01
 252 F= -.96310902E+02 E0= -.96310879E+02  d E =-.145645E-02
       N       E                     dE             d eps       ncg     rms          rms(c)
DAV:   1    -0.963107594185E+02    0.12455E-03   -0.11485E-01    96   0.243E+00    0.938E-02
DAV:   2    -0.963111631189E+02   -0.40370E-03   -0.64001E-03   112   0.412E-01    0.576E-02
DAV:   3    -0.963111840410E+02   -0.20922E-04   -0.49692E-04   128   0.138E-01
 253 F= -.96311184E+02 E0= -.96311158E+02  d E =-.173812E-02
       N       E                     dE             d eps       ncg     rms          rms(c)
DAV:   1    -0.963119197958E+02   -0.75668E-03   -0.28727E-02    96   0.108E+00    0.535E-02
DAV:   2    -0.963120337007E+02   -0.11390E-03   -0.17306E-03   128   0.257E-01    0.586E-02
DAV:   3    -0.963119864883E+02    0.47212E-04   -0.38580E-04    88   0.154E-01
 254 F= -.96311986E+02 E0= -.96311957E+02  d E =-.802447E-03
       N       E                     dE             d eps       ncg     rms          rms(c)
DAV:   1    -0.963123648702E+02   -0.33117E-03   -0.25546E-01    96   0.321E+00    0.119E-01
DAV:   2    -0.963130533767E+02   -0.68851E-03   -0.11561E-02   120   0.535E-01    0.712E-02
DAV:   3    -0.963130879320E+02   -0.34555E-04   -0.79465E-04   128   0.174E-01
 255 F= -.96313088E+02 E0= -.96313052E+02  d E =-.190389E-02
       N       E                     dE             d eps       ncg     rms          rms(c)
DAV:   1    -0.963142970364E+02   -0.12437E-02   -0.30044E-02    96   0.118E+00    0.666E-02
DAV:   2    -0.963145108009E+02   -0.21376E-03   -0.26720E-03   136   0.343E-01    0.977E-02
DAV:   3    -0.963143589149E+02    0.15189E-03   -0.86196E-04   112   0.224E-01    0.291E-02
DAV:   4    -0.963143739811E+02   -0.15066E-04   -0.10329E-04    72   0.626E-02
 256 F= -.96314374E+02 E0= -.96314335E+02  d E =-.128605E-02
       N       E                     dE             d eps       ncg     rms          rms(c)
DAV:   1    -0.963154431293E+02   -0.10842E-02   -0.26479E-01    96   0.348E+00    0.129E-01
DAV:   2    -0.963164487670E+02   -0.10056E-02   -0.14500E-02   120   0.641E-01    0.116E-01
DAV:   3    -0.963163455429E+02    0.10322E-03   -0.21593E-03   144   0.321E-01    0.794E-02
DAV:   4    -0.963162839889E+02    0.61554E-04   -0.61915E-04   104   0.165E-01
 257 F= -.96316284E+02 E0= -.96316237E+02  d E =-.319606E-02
       N       E                     dE             d eps       ncg     rms          rms(c)
DAV:   1    -0.963175697693E+02   -0.12242E-02   -0.81491E-02    96   0.198E+00    0.777E-02
DAV:   2    -0.963178985893E+02   -0.32882E-03   -0.47815E-03   128   0.383E-01    0.665E-02
DAV:   3    -0.963178730586E+02    0.25531E-04   -0.69957E-04   112   0.193E-01
 258 F= -.96317873E+02 E0= -.96317823E+02  d E =-.158907E-02
       N       E                     dE             d eps       ncg     rms          rms(c)
DAV:   1    -0.963179577689E+02   -0.59180E-04   -0.17304E-01    96   0.289E+00    0.116E-01
DAV:   2    -0.963186219493E+02   -0.66418E-03   -0.10263E-02   120   0.532E-01    0.100E-01
DAV:   3    -0.963185385849E+02    0.83364E-04   -0.12938E-03   128   0.217E-01    0.624E-02
DAV:   4    -0.963185270298E+02    0.11555E-04   -0.41400E-04    96   0.131E-01
 259 F= -.96318527E+02 E0= -.96318480E+02  d E =-.224304E-02
       N       E                     dE             d eps       ncg     rms          rms(c)
DAV:   1    -0.963191586953E+02   -0.62011E-03   -0.30955E-02    96   0.125E+00    0.520E-02
DAV:   2    -0.963193322377E+02   -0.17354E-03   -0.21955E-03   128   0.295E-01    0.670E-02
DAV:   3    -0.963192715618E+02    0.60676E-04   -0.46073E-04   104   0.170E-01
 260 F= -.96319272E+02 E0= -.96319222E+02  d E =-.744532E-03
       N       E                     dE             d eps       ncg     rms          rms(c)
DAV:   1    -0.963193695524E+02   -0.37315E-04   -0.27712E-01    96   0.373E+00    0.122E-01
DAV:   2    -0.963205074531E+02   -0.11379E-02   -0.15442E-02   120   0.637E-01    0.871E-02
DAV:   3    -0.963205476722E+02   -0.40219E-04   -0.15788E-03   136   0.245E-01    0.752E-02
DAV:   4    -0.963205030717E+02    0.44600E-04   -0.62544E-04    96   0.167E-01
 261 F= -.96320503E+02 E0= -.96320454E+02  d E =-.197604E-02
       N       E                     dE             d eps       ncg     rms          rms(c)
DAV:   1    -0.963215267977E+02   -0.97913E-03   -0.26534E-02   104   0.125E+00    0.567E-02
DAV:   2    -0.963216863836E+02   -0.15959E-03   -0.23305E-03   120   0.284E-01    0.651E-02
DAV:   3    -0.963216234212E+02    0.62962E-04   -0.34415E-04    96   0.143E-01
 262 F= -.96321623E+02 E0= -.96321570E+02  d E =-.112035E-02
       N       E                     dE             d eps       ncg     rms          rms(c)
DAV:   1    -0.963219495596E+02   -0.26318E-03   -0.98593E-02   104   0.242E+00    0.950E-02
DAV:   2    -0.963224055585E+02   -0.45600E-03   -0.73682E-03   120   0.453E-01    0.756E-02
DAV:   3    -0.963223613888E+02    0.44170E-04   -0.99377E-04   128   0.186E-01
 263 F= -.96322361E+02 E0= -.96322307E+02  d E =-.185832E-02
       N       E                     dE             d eps       ncg     rms          rms(c)
DAV:   1    -0.963229303550E+02   -0.52480E-03   -0.36547E-02   104   0.153E+00    0.552E-02
DAV:   2    -0.963231480617E+02   -0.21771E-03   -0.28131E-03   112   0.291E-01    0.449E-02
DAV:   3    -0.963231496910E+02   -0.16293E-05   -0.28858E-04   104   0.128E-01
 264 F= -.96323150E+02 E0= -.96323090E+02  d E =-.788302E-03
       N       E                     dE             d eps       ncg     rms          rms(c)
DAV:   1    -0.963228955820E+02    0.25248E-03   -0.12030E-01    96   0.279E+00    0.937E-02
DAV:   2    -0.963236115480E+02   -0.71597E-03   -0.94326E-03   112   0.504E-01    0.693E-02
DAV:   3    -0.963236152372E+02   -0.36892E-05   -0.87778E-04   120   0.199E-01
 265 F= -.96323615E+02 E0= -.96323558E+02  d E =-.125385E-02
       N       E                     dE             d eps       ncg     rms          rms(c)
DAV:   1    -0.963241465629E+02   -0.53501E-03   -0.57218E-02    96   0.163E+00    0.720E-02
DAV:   2    -0.963243253536E+02   -0.17879E-03   -0.34276E-03   112   0.313E-01    0.502E-02
DAV:   3    -0.963243409295E+02   -0.15576E-04   -0.54318E-04   112   0.164E-01
 266 F= -.96324341E+02 E0= -.96324279E+02  d E =-.725692E-03
       N       E                     dE             d eps       ncg     rms          rms(c)
DAV:   1    -0.963243320155E+02   -0.66618E-05   -0.70573E-03    96   0.584E-01    0.329E-02
DAV:   2    -0.963243583565E+02   -0.26341E-04   -0.44596E-04   104   0.119E-01
 267 F= -.96324358E+02 E0= -.96324299E+02  d E =-.743119E-03
