unknown system                          
           1
    20.738775    0.000000    0.000000
     0.000000   20.180822    0.000000
     0.000000    0.000000   18.777092
   Ti   Al   B 
     2     4    12
Direct configuration=     1
   0.38454362  0.34207477  0.45981811
   0.44014236  0.59573587  0.29609959
   0.52597276  0.67810812  0.62939079
   0.50477970  0.49343088  0.36465777
   0.67567717  0.47335815  0.47030885
   0.73328780  0.56886452  0.62730354
   0.41211430  0.51952864  0.61659612
   0.48010262  0.52555406  0.42675952
   0.55789912  0.29937112  0.55706768
   0.39293925  0.44276631  0.40491547
   0.52173517  0.44693879  0.38398390
   0.52375752  0.49707244  0.52988722
   0.46854227  0.50443308  0.50176149
   0.34205184  0.50235559  0.58552229
   0.55446290  0.46488576  0.48299687
   0.53224261  0.64609107  0.51730431
   0.45837497  0.51716167  0.57275730
   0.44328486  0.57521918  0.62110004
Direct configuration=     2
   0.38659400  0.34623437  0.45938719
   0.44075902  0.59358693  0.29987106
   0.52425189  0.67499502  0.62858276
   0.46966015  0.62011017  0.23798964
   0.67274207  0.47399391  0.47195013
   0.73248431  0.56849201  0.62628509
   0.37315844  0.50079683  0.64004704
   0.45955966  0.55123741  0.47248582
   0.55669553  0.30053730  0.55587844
   0.39738150  0.44304361  0.40583185
   0.57728838  0.29535972  0.45816244
   0.53914334  0.51314769  0.57514903
   0.43900588  0.50095459  0.47085405
   0.34218002  0.50044322  0.58448990
   0.56885138  0.44581596  0.44937422
   0.53152437  0.64465438  0.51829745
   0.48241646  0.51333207  0.56604203
   0.45821446  0.60621483  0.62755268
Direct configuration=     3
   0.38712854  0.34731878  0.45927485
   0.44091978  0.59302670  0.30085428
   0.52380326  0.67418343  0.62837211
   0.46050445  0.65313558  0.20496715
   0.67197689  0.47415965  0.47237802
   0.73227483  0.56839490  0.62601958
   0.36300261  0.49591343  0.64616072
   0.45420409  0.55793308  0.48440672
   0.55638175  0.30084132  0.55556840
   0.39853960  0.44311590  0.40607076
   0.59177115  0.25584292  0.47750086
   0.54315444  0.51733852  0.58694883
   0.43130571  0.50004775  0.46279645
   0.34221343  0.49994467  0.58422076
   0.57260248  0.44084445  0.44060877
   0.53133713  0.64427983  0.51855637
   0.48868410  0.51233369  0.56429135
   0.46210662  0.61429542  0.62923489
Direct configuration=     4
   0.39009988  0.35401260  0.45832733
   0.44053196  0.58940714  0.30676197
   0.53513298  0.68340018  0.62871280
   0.45533447  0.67492282  0.18243516
   0.66955813  0.47471242  0.47460555
   0.73031173  0.56747927  0.62441412
   0.37503224  0.49143585  0.69581952
   0.46739295  0.58911614  0.50684861
   0.55748545  0.29968282  0.54903674
   0.40118313  0.44156064  0.41121058
   0.59801838  0.23541432  0.49402857
   0.59690485  0.52725246  0.61333097
   0.41366170  0.47196149  0.44548752
   0.32944756  0.50229543  0.53468465
   0.57402598  0.43730606  0.43783475
   0.52577683  0.63821946  0.51898601
   0.43695230  0.51060934  0.53936319
   0.45506033  0.60416157  0.62634279
Direct configuration=     5
   0.38822633  0.34979188  0.45892478
   0.44077649  0.59168941  0.30303694
   0.52798915  0.67758866  0.62849798
   0.45859434  0.66118511  0.19664246
   0.67108325  0.47436388  0.47320100
   0.73154954  0.56805661  0.62542643
   0.36744708  0.49425914  0.66450770
   0.45907686  0.56945400  0.49269812
   0.55678952  0.30041330  0.55315521
   0.39951628  0.44254129  0.40796972
   0.59407926  0.24829535  0.48360720
   0.56301311  0.52100133  0.59669599
   0.42478694  0.48967098  0.45640148
   0.33749694  0.50081318  0.56591911
   0.57312840  0.43953715  0.43958388
   0.52928281  0.64204076  0.51871510
   0.46957123  0.51169661  0.55508137
   0.45950329  0.61055136  0.62816637
Direct configuration=     6
   0.38812730  0.34956878  0.45895636
   0.44078942  0.59181005  0.30284004
   0.52761153  0.67728147  0.62848662
   0.45876665  0.66045895  0.19739344
   0.67116387  0.47434545  0.47312676
   0.73161497  0.56808713  0.62547994
   0.36704614  0.49440838  0.66285259
   0.45863728  0.56841469  0.49195014
   0.55675274  0.30045191  0.55337291
   0.39942817  0.44259313  0.40779841
   0.59387104  0.24897623  0.48305634
   0.56122163  0.52067090  0.59581669
   0.42537501  0.49060708  0.45697838
   0.33792242  0.50073483  0.56757012
   0.57308096  0.43965509  0.43967633
   0.52946814  0.64224275  0.51870078
   0.47129542  0.51175408  0.55591221
   0.45973814  0.61088912  0.62826277
Direct configuration=     7
   0.38762792  0.34844378  0.45911560
   0.44085460  0.59241838  0.30184716
   0.52570740  0.67573245  0.62842937
   0.45963555  0.65679726  0.20118029
   0.67157038  0.47425255  0.47275239
   0.73194490  0.56824101  0.62574976
   0.36502437  0.49516090  0.65450665
   0.45642068  0.56317388  0.48817843
   0.55656724  0.30064662  0.55447066
   0.39898388  0.44285451  0.40693458
   0.59282110  0.25240957  0.48027860
   0.55218803  0.51900471  0.59138276
   0.42834036  0.49532742  0.45988741
   0.34006793  0.50033975  0.57589544
   0.57284172  0.44024977  0.44014255
   0.53040263  0.64326129  0.51862858
   0.47998976  0.51204388  0.56010178
   0.46092238  0.61259227  0.62874883
Direct configuration=     8
   0.38787646  0.34900369  0.45903635
   0.44082216  0.59211561  0.30234132
   0.52665508  0.67650340  0.62845786
   0.45920310  0.65861968  0.19929558
   0.67136806  0.47429879  0.47293871
   0.73178070  0.56816443  0.62561547
   0.36603061  0.49478637  0.65866043
   0.45752388  0.56578223  0.49005561
   0.55665956  0.30054971  0.55392431
   0.39920500  0.44272442  0.40736451
   0.59334366  0.25070080  0.48166108
   0.55668405  0.51983397  0.59358953
   0.42686451  0.49297811  0.45843959
   0.33900011  0.50053638  0.57175193
   0.57296079  0.43995379  0.43991052
   0.52993753  0.64275437  0.51866451
   0.47566259  0.51189965  0.55801663
   0.46033298  0.61174461  0.62850691
Direct configuration=     9
   0.38779900  0.34882920  0.45906105
   0.44083227  0.59220997  0.30218732
   0.52635975  0.67626314  0.62844898
   0.45933787  0.65805174  0.19988293
   0.67143111  0.47428438  0.47288065
   0.73183187  0.56818829  0.62565732
   0.36571702  0.49490309  0.65736595
   0.45718008  0.56496937  0.48947060
   0.55663079  0.30057991  0.55409457
   0.39913609  0.44276496  0.40723053
   0.59318081  0.25123332  0.48123024
   0.55528291  0.51957554  0.59290181
   0.42732444  0.49371025  0.45889079
   0.33933289  0.50047510  0.57304322
   0.57292368  0.44004603  0.43998283
   0.53008248  0.64291234  0.51865331
   0.47701111  0.51194460  0.55866645
   0.46051666  0.61200877  0.62858230
Direct configuration=    10
   0.38777159  0.34876744  0.45906979
   0.44083585  0.59224337  0.30213281
   0.52625520  0.67617809  0.62844584
   0.45938558  0.65785070  0.20009085
   0.67145343  0.47427928  0.47286009
   0.73184998  0.56819674  0.62567213
   0.36560602  0.49494441  0.65690771
   0.45705838  0.56468162  0.48926352
   0.55662061  0.30059060  0.55415484
   0.39911170  0.44277931  0.40718310
   0.59312316  0.25142183  0.48107773
   0.55478693  0.51948406  0.59265836
   0.42748725  0.49396941  0.45905051
   0.33945069  0.50045341  0.57350032
   0.57291054  0.44007868  0.44000843
   0.53013378  0.64296827  0.51864935
   0.47748847  0.51196051  0.55889648
   0.46058168  0.61210229  0.62860899
Direct configuration=    11
   0.39007788  0.35425483  0.45863484
   0.44086025  0.59075318  0.30475747
   0.53171627  0.68029188  0.62832935
   0.45924579  0.65823484  0.19983156
   0.66987551  0.47468267  0.47449083
   0.72995597  0.56744379  0.62446489
   0.36769630  0.49600062  0.65640645
   0.46141890  0.56724135  0.49181309
   0.55779728  0.29927851  0.54894062
   0.39812898  0.43732847  0.40698679
   0.59103135  0.25435529  0.48500911
   0.55324866  0.52055725  0.59022124
   0.42811587  0.49727169  0.46123152
   0.34213945  0.50010956  0.57112845
   0.57218858  0.43954359  0.44218090
   0.52492675  0.63737096  0.51903407
   0.47722893  0.51466292  0.55978308
   0.45625812  0.60356862  0.62498656
Direct configuration=    12
   0.39346528  0.36231453  0.45799601
   0.44089608  0.58856445  0.30861250
   0.53973730  0.68633408  0.62815826
   0.45904047  0.65879905  0.19945073
   0.66755792  0.47527515  0.47688601
   0.72717410  0.56633787  0.62269175
   0.37076644  0.49755196  0.65567020
   0.46782348  0.57100101  0.49555781
   0.55952555  0.29735135  0.54128216
   0.39668561  0.42932246  0.40669846
   0.58795896  0.25866386  0.49078340
   0.55098931  0.52213351  0.58664168
   0.42903916  0.50212196  0.46443491
   0.34608863  0.49960451  0.56764473
   0.57112818  0.43875765  0.44537175
   0.51727882  0.62914981  0.51959914
   0.47684773  0.51863213  0.56108530
   0.44990782  0.59103466  0.61966605
Direct configuration=    13
   0.39141614  0.35743897  0.45838246
   0.44087440  0.58988848  0.30628048
   0.53488513  0.68267897  0.62826176
   0.45916467  0.65845774  0.19968110
   0.66895990  0.47491674  0.47543709
   0.72885694  0.56700687  0.62376438
   0.36890922  0.49661351  0.65611558
   0.46394915  0.56872668  0.49329252
   0.55848007  0.29851714  0.54591500
   0.39755875  0.43416554  0.40687288
   0.58981754  0.25605748  0.48729036
   0.55235606  0.52117998  0.58880707
   0.42848063  0.49918789  0.46249708
   0.34369965  0.49991003  0.56975214
   0.57176965  0.43923309  0.44344150
   0.52190529  0.63412303  0.51925732
   0.47707833  0.51623104  0.56029755
   0.45374931  0.59861684  0.62288459
Direct configuration=    14
   0.39441234  0.35985267  0.46198875
   0.44094981  0.58794164  0.30958464
   0.53716258  0.68275774  0.62684278
   0.45899337  0.65823650  0.20030931
   0.66664747  0.47563729  0.47808683
   0.72592755  0.56593671  0.62195561
   0.37176626  0.49893348  0.65257083
   0.46896868  0.57345063  0.49373235
   0.55689321  0.30147250  0.54499142
   0.39942737  0.43861306  0.40725378
   0.58992857  0.25637957  0.48601644
   0.55088783  0.52252046  0.58499975
   0.42773262  0.49914629  0.46259605
   0.34873991  0.49925022  0.56878603
   0.57044557  0.43812754  0.44706653
   0.51430801  0.62586056  0.52104228
   0.47606082  0.51795553  0.56316258
   0.45265886  0.59087762  0.61724491
Direct configuration=    15
   0.39499861  0.36032496  0.46269440
   0.44096456  0.58756070  0.31023117
   0.53760822  0.68277315  0.62656513
   0.45895985  0.65819321  0.20043223
   0.66619499  0.47577829  0.47860531
   0.72535435  0.56572731  0.62160168
   0.37232531  0.49938743  0.65187722
   0.46995086  0.57437497  0.49381841
   0.55658271  0.30205078  0.54481070
   0.39979300  0.43948331  0.40732831
   0.58995030  0.25644260  0.48576716
   0.55060054  0.52278275  0.58425477
   0.42758626  0.49913815  0.46261541
   0.34972614  0.49912111  0.56859699
   0.57018649  0.43791122  0.44777584
   0.51282144  0.62424383  0.52139155
   0.47586173  0.51829296  0.56372318
   0.45244549  0.58936328  0.61614138
Direct configuration=    16
   0.39719383  0.36216051  0.46538101
   0.44100756  0.58619819  0.31251230
   0.53829364  0.68180402  0.62518777
   0.45883203  0.65789859  0.20105269
   0.66455006  0.47631079  0.48055118
   0.72324454  0.56496288  0.62029877
   0.37471601  0.50131896  0.64962518
   0.46980593  0.57331577  0.49188669
   0.55540347  0.30432186  0.54416156
   0.40130159  0.44308398  0.40774566
   0.59001827  0.25672052  0.48474816
   0.55031198  0.52372382  0.58157151
   0.42740803  0.49958565  0.46300161
   0.35333510  0.49855736  0.56740513
   0.56916547  0.43701097  0.45046374
   0.51072950  0.62208137  0.52501164
   0.47443179  0.51893043  0.56514455
   0.45216202  0.58496434  0.61248169
Direct configuration=    17
   0.40359020  0.36750887  0.47320919
   0.44113284  0.58222816  0.31915898
   0.54029079  0.67898021  0.62117448
   0.45845960  0.65704011  0.20286056
   0.65975709  0.47786240  0.48622101
   0.71709706  0.56273548  0.61650240
   0.38168196  0.50694701  0.64306324
   0.46938364  0.57022949  0.48625813
   0.55196745  0.31093927  0.54227012
   0.40569727  0.45357548  0.40896172
   0.59021633  0.25753034  0.48177900
   0.54947118  0.52646588  0.57375313
   0.42688873  0.50088957  0.46412690
   0.36385078  0.49691472  0.56393232
   0.56619048  0.43438785  0.45829566
   0.50463407  0.61578046  0.53555975
   0.47026530  0.52078784  0.56928607
   0.45133607  0.57214685  0.60181818
Direct configuration=    18
   0.40031275  0.36476841  0.46919809
   0.44106865  0.58426238  0.31575326
   0.53926746  0.68042711  0.62323087
   0.45865043  0.65747999  0.20193422
   0.66221298  0.47706737  0.48331583
   0.72024699  0.56387678  0.61844764
   0.37811265  0.50406324  0.64642553
   0.46960002  0.57181088  0.48914217
   0.55372804  0.30754855  0.54323928
   0.40344495  0.44819971  0.40833862
   0.59011484  0.25711540  0.48330037
   0.54990200  0.52506087  0.57775922
   0.42715482  0.50022145  0.46355031
   0.35846262  0.49775640  0.56571176
   0.56771485  0.43573192  0.45428264
   0.50775733  0.61900901  0.53015497
   0.47240018  0.51983611  0.56716398
   0.45175928  0.57871445  0.60728209
Direct configuration=    19
   0.40208425  0.36624966  0.47136613
   0.44110334  0.58316286  0.31759409
   0.53982059  0.67964505  0.62211937
   0.45854728  0.65724223  0.20243492
   0.66088554  0.47749709  0.48488611
   0.71854442  0.56325990  0.61739621
   0.38004190  0.50562195  0.64460818
   0.46948306  0.57095612  0.48758331
   0.55277642  0.30938127  0.54271544
   0.40466236  0.45110537  0.40867541
   0.59016970  0.25733968  0.48247805
   0.54966914  0.52582029  0.57559389
   0.42701099  0.50058258  0.46386197
   0.36137498  0.49730146  0.56474995
   0.56689091  0.43500544  0.45645172
   0.50606918  0.61726395  0.53307631
   0.47124625  0.52035053  0.56831100
   0.45153053  0.57516459  0.60432879
Direct configuration=    20
   0.40344164  0.36761794  0.47282945
   0.44111881  0.58230351  0.31900335
   0.54017036  0.67902145  0.62133507
   0.45847058  0.65704917  0.20282504
   0.65988772  0.47783111  0.48607965
   0.71729045  0.56279965  0.61660952
   0.38166570  0.50696342  0.64340393
   0.46905956  0.56992325  0.48622697
   0.55215807  0.31065580  0.54208140
   0.40541475  0.45268508  0.40865696
   0.59008990  0.25767729  0.48206163
   0.54950803  0.52641011  0.57393513
   0.42701937  0.50119834  0.46447073
   0.36352727  0.49688404  0.56372836
   0.56625202  0.43440628  0.45809217
   0.50513619  0.61623578  0.53557812
   0.47090547  0.51929949  0.56812152
   0.45079495  0.57398832  0.60319183
Direct configuration=    21
   0.40751382  0.37172277  0.47721941
   0.44116521  0.57972547  0.32323114
   0.54121969  0.67715067  0.61898216
   0.45824048  0.65647000  0.20399542
   0.65689425  0.47883315  0.48966028
   0.71352857  0.56141892  0.61424942
   0.38653709  0.51098783  0.63979120
   0.46778904  0.56682462  0.48215795
   0.55030302  0.31447938  0.54017929
   0.40767192  0.45742419  0.40860161
   0.58985050  0.25869014  0.48081236
   0.54902473  0.52817955  0.56895887
   0.42704450  0.50304563  0.46629703
   0.36998415  0.49563177  0.56066358
   0.56433535  0.43260879  0.46301351
   0.50233721  0.61315129  0.54308355
   0.46988310  0.51614635  0.56755310
   0.44858821  0.57045951  0.59978096
Direct configuration=    22
   0.41565818  0.37993244  0.48599933
   0.44125801  0.57456938  0.33168671
   0.54331834  0.67340910  0.61427635
   0.45778027  0.65531165  0.20633616
   0.65090732  0.48083724  0.49682153
   0.70600480  0.55865744  0.60952923
   0.39627986  0.51903666  0.63256575
   0.46524802  0.56062736  0.47401991
   0.54659292  0.32212653  0.53637507
   0.41218627  0.46690243  0.40849091
   0.58937171  0.26071583  0.47831382
   0.54805811  0.53171844  0.55900635
   0.42709476  0.50674022  0.46994962
   0.38289791  0.49312723  0.55453402
   0.56050202  0.42901383  0.47285620
   0.49673927  0.60698230  0.55809440
   0.46783837  0.50984007  0.56641627
   0.44417472  0.56340188  0.59295921
Direct configuration=    23
   0.41261866  0.37686854  0.48272262
   0.44122338  0.57649366  0.32853105
   0.54253511  0.67480547  0.61603258
   0.45795202  0.65574395  0.20546258
   0.65314167  0.48008931  0.49414891
   0.70881271  0.55968804  0.61129083
   0.39264380  0.51603280  0.63526232
   0.46619634  0.56294021  0.47705707
   0.54797755  0.31927257  0.53779482
   0.41050149  0.46336510  0.40853223
   0.58955040  0.25995983  0.47924629
   0.54841886  0.53039770  0.56272068
   0.42707600  0.50536138  0.46858645
   0.37807843  0.49406193  0.55682161
   0.56193264  0.43035549  0.46918286
   0.49882845  0.60928460  0.55249227
   0.46860148  0.51219361  0.56684054
   0.44582186  0.56603582  0.59550512
Direct configuration=    24
   0.41509151  0.37969110  0.48502417
   0.44123291  0.57484884  0.33127504
   0.54326047  0.67390992  0.61492342
   0.45781869  0.65539555  0.20612495
   0.65132828  0.48068158  0.49623418
   0.70667642  0.55890343  0.60993673
   0.39549990  0.51839861  0.63308305
   0.46639902  0.56261784  0.47543028
   0.54701100  0.32145339  0.53621816
   0.41155309  0.46505522  0.40759737
   0.58921094  0.26083070  0.47884545
   0.54814166  0.53133379  0.55985283
   0.42643363  0.50573711  0.47031950
   0.38181622  0.49321918  0.55490610
   0.56079413  0.42917794  0.47213728
   0.49722550  0.60705084  0.55590572
   0.46927038  0.50795819  0.56481451
   0.44314709  0.56668677  0.59560211
Direct configuration=    25
   0.42185080  0.38740629  0.49131526
   0.44125895  0.57035289  0.33877550
   0.54524317  0.67146201  0.61189163
   0.45745423  0.65444322  0.20793545
   0.64637154  0.48230052  0.50193405
   0.70083706  0.55675878  0.60623542
   0.40330679  0.52486536  0.62712619
   0.46695304  0.56173668  0.47098360
   0.54436903  0.32741446  0.53190852
   0.41442755  0.46967502  0.40504204
   0.58828307  0.26321113  0.47774978
   0.54738398  0.53389249  0.55201381
   0.42467777  0.50676412  0.47505663
   0.39203314  0.49091560  0.54967025
   0.55768211  0.42595922  0.48021291
   0.49284398  0.60094508  0.56523606
   0.47109876  0.49638106  0.55927654
   0.43583586  0.56846609  0.59586720
Direct configuration=    26
   0.41915371  0.38432778  0.48880499
   0.44124856  0.57214686  0.33578267
   0.54445203  0.67243878  0.61310137
   0.45759966  0.65482322  0.20721302
   0.64834938  0.48165453  0.49965969
   0.70316708  0.55761454  0.60771231
   0.40019169  0.52228500  0.62950309
   0.46673198  0.56208828  0.47275791
   0.54542323  0.32503588  0.53362815
   0.41328059  0.46783163  0.40606167
   0.58865331  0.26226129  0.47818697
   0.54768631  0.53287152  0.55514173
   0.42537839  0.50635432  0.47316643
   0.38795639  0.49183477  0.55175946
   0.55892386  0.42724355  0.47699058
   0.49459229  0.60338139  0.56151307
   0.47036920  0.50100056  0.56148630
   0.43875318  0.56775611  0.59576142
Direct configuration=    27
   0.41973249  0.38527450  0.48884053
   0.44122003  0.57167872  0.33668892
   0.54478284  0.67255939  0.61319812
   0.45758005  0.65473191  0.20731666
   0.64792233  0.48172831  0.49991191
   0.70292798  0.55755700  0.60757053
   0.39916901  0.52080998  0.62989108
   0.46803135  0.56391548  0.47304558
   0.54539453  0.32548501  0.53273957
   0.41334793  0.46719956  0.40502003
   0.58834200  0.26275917  0.47852402
   0.54767040  0.53278108  0.55484085
   0.42434251  0.50506563  0.47379092
   0.38807203  0.49173212  0.55205729
   0.55868779  0.42679676  0.47763820
   0.49488185  0.60291878  0.56047783
   0.47098699  0.50058674  0.56084346
   0.43881873  0.56936988  0.59583535
Direct configuration=    28
   0.42116640  0.38761994  0.48892859
   0.44114935  0.57051893  0.33893412
   0.54560240  0.67285821  0.61343782
   0.45753149  0.65450569  0.20757340
   0.64686435  0.48191110  0.50053679
   0.70233562  0.55741446  0.60721928
   0.39663533  0.51715568  0.63085230
   0.47125050  0.56844231  0.47375825
   0.54532345  0.32659771  0.53053815
   0.41351479  0.46563361  0.40243940
   0.58757075  0.26399265  0.47935903
   0.54763097  0.53255700  0.55409543
   0.42177614  0.50187294  0.47533807
   0.38835851  0.49147780  0.55279516
   0.55810291  0.42568987  0.47924265
   0.49559924  0.60177267  0.55791304
   0.47251754  0.49956150  0.55925086
   0.43898111  0.57336795  0.59601850
Direct configuration=    29
   0.42403421  0.39231083  0.48910469
   0.44100800  0.56819935  0.34342452
   0.54724152  0.67345586  0.61391723
   0.45743437  0.65405325  0.20808688
   0.64474838  0.48227667  0.50178653
   0.70115090  0.55712936  0.60651678
   0.39156799  0.50984707  0.63277476
   0.47768880  0.57749595  0.47518361
   0.54518127  0.32882311  0.52613531
   0.41384849  0.46250172  0.39727814
   0.58602825  0.26645962  0.48102906
   0.54755211  0.53210885  0.55260458
   0.41664340  0.49548757  0.47843237
   0.38893146  0.49096916  0.55427090
   0.55693316  0.42347609  0.48245155
   0.49703401  0.59948045  0.55278347
   0.47557864  0.49751104  0.55606566
   0.43930588  0.58136408  0.59638481
Direct configuration=    30
   0.42301297  0.39064039  0.48904198
   0.44105833  0.56902536  0.34182547
   0.54665782  0.67324303  0.61374651
   0.45746895  0.65421437  0.20790403
   0.64550188  0.48214648  0.50134149
   0.70157279  0.55723088  0.60676694
   0.39337249  0.51244970  0.63209016
   0.47539609  0.57427191  0.47467603
   0.54523190  0.32803064  0.52770318
   0.41372966  0.46361700  0.39911609
   0.58657754  0.26558112  0.48043436
   0.54758019  0.53226844  0.55313548
   0.41847119  0.49776143  0.47733047
   0.38872743  0.49115029  0.55374538
   0.55734971  0.42426443  0.48130885
   0.49652308  0.60029672  0.55461013
   0.47448857  0.49824122  0.55719992
   0.43919022  0.57851662  0.59625437
Direct configuration=    31
   0.42444497  0.39236270  0.48874368
   0.44108292  0.56764229  0.34449872
   0.54722718  0.67322022  0.61384981
   0.45742582  0.65398776  0.20816290
   0.64436809  0.48227267  0.50187923
   0.70104970  0.55714456  0.60647351
   0.39331971  0.51235164  0.63197961
   0.47603060  0.57542918  0.47451848
   0.54513293  0.32977525  0.52538258
   0.41416633  0.46281300  0.39787915
   0.58581984  0.26680409  0.48124334
   0.54807739  0.53159228  0.55255157
   0.41829628  0.49737642  0.47668855
   0.38869774  0.49061256  0.55470476
   0.55669873  0.42278564  0.48304508
   0.49805048  0.60048194  0.55213409
   0.47498778  0.49839061  0.55617463
   0.43703435  0.57790720  0.59832113
Direct configuration=    32
   0.42759568  0.39615217  0.48808736
   0.44113702  0.56459922  0.35038047
   0.54847991  0.67317003  0.61407708
   0.45733091  0.65348918  0.20873249
   0.64187350  0.48255030  0.50306239
   0.69989878  0.55695462  0.60582791
   0.39320357  0.51213590  0.63173638
   0.47742668  0.57797545  0.47417183
   0.54491518  0.33361378  0.52027672
   0.41512710  0.46104401  0.39515762
   0.58415272  0.26949489  0.48302330
   0.54917134  0.53010459  0.55126684
   0.41791142  0.49652932  0.47527619
   0.38863242  0.48942944  0.55681562
   0.55526644  0.41953198  0.48686519
   0.50141109  0.60088948  0.54668624
   0.47608616  0.49871930  0.55391875
   0.43229093  0.57656634  0.60286847
Direct configuration=    33
   0.43389710  0.40373112  0.48677470
   0.44124521  0.55851309  0.36214399
   0.55098535  0.67306964  0.61453163
   0.45714109  0.65249201  0.20987166
   0.63688430  0.48310557  0.50542870
   0.69759696  0.55657474  0.60453669
   0.39297129  0.51170442  0.63124990
   0.48021882  0.58306798  0.47347853
   0.54447968  0.34129086  0.51006500
   0.41704864  0.45750604  0.38971456
   0.58081848  0.27487650  0.48658322
   0.55135925  0.52712921  0.54869739
   0.41714172  0.49483512  0.47245145
   0.38850178  0.48706320  0.56103733
   0.55240184  0.41302465  0.49450540
   0.50813232  0.60170456  0.53579052
   0.47828292  0.49937668  0.54940700
   0.42280409  0.57388463  0.61196316
Direct configuration=    34
   0.42909933  0.39796066  0.48777413
   0.44116284  0.56314695  0.35318749
   0.54907775  0.67314608  0.61418554
   0.45728561  0.65325123  0.20900432
   0.64068297  0.48268280  0.50362704
   0.69934952  0.55686397  0.60551980
   0.39314814  0.51203294  0.63162029
   0.47809294  0.57919063  0.47400640
   0.54481126  0.33544569  0.51784000
   0.41558561  0.46019978  0.39385880
   0.58335710  0.27077905  0.48387277
   0.54969342  0.52939461  0.55065372
   0.41772776  0.49612505  0.47460215
   0.38860125  0.48886481  0.55782300
   0.55458289  0.41797920  0.48868830
   0.50301491  0.60108398  0.54408630
   0.47661035  0.49887616  0.55284216
   0.43002718  0.57592643  0.60503865
Direct configuration=    35
   0.43189577  0.39916753  0.48730453
   0.44134487  0.56044767  0.35812345
   0.54970424  0.67269856  0.61412640
   0.45718622  0.65278622  0.20962628
   0.63868181  0.48262520  0.50445762
   0.69840743  0.55671615  0.60501533
   0.39378283  0.51313994  0.63324582
   0.47659664  0.57850484  0.46970429
   0.54436421  0.33965243  0.51419220
   0.41644907  0.45985810  0.39315103
   0.58232637  0.27252678  0.48493240
   0.55105736  0.52806339  0.54990134
   0.41812565  0.49802708  0.47300016
   0.38897792  0.48773313  0.55630317
   0.55343633  0.41520086  0.49169283
   0.50389346  0.60167703  0.54564104
   0.47625756  0.49977117  0.55179784
   0.42942311  0.57435392  0.60601511
Direct configuration=    36
   0.43336727  0.39980259  0.48705743
   0.44144065  0.55902730  0.36072077
   0.55003390  0.67246308  0.61409528
   0.45713391  0.65254154  0.20995356
   0.63762879  0.48259489  0.50489467
   0.69791169  0.55663837  0.60474988
   0.39411680  0.51372244  0.63410117
   0.47580929  0.57814398  0.46744051
   0.54412898  0.34186603  0.51227273
   0.41690342  0.45967831  0.39277860
   0.58178400  0.27344643  0.48548997
   0.55177506  0.52736290  0.54950544
   0.41833502  0.49902793  0.47215720
   0.38917613  0.48713764  0.55550342
   0.55283300  0.41373889  0.49327382
   0.50435575  0.60198909  0.54645914
   0.47607192  0.50024213  0.55124832
   0.42910524  0.57352647  0.60652893
Direct configuration=    37
   0.43582928  0.39969081  0.48679421
   0.44157300  0.55699830  0.36385372
   0.55044682  0.67206497  0.61411087
   0.45703309  0.65211017  0.21062044
   0.63636786  0.48212376  0.50534783
   0.69707062  0.55649897  0.60430782
   0.39379460  0.51261562  0.63416889
   0.47477149  0.57721058  0.46618262
   0.54330026  0.34200228  0.51051778
   0.41750898  0.45962417  0.39339132
   0.58095047  0.27488534  0.48625177
   0.55229517  0.52654317  0.54904184
   0.41903986  0.50196253  0.47026538
   0.38992140  0.48721536  0.55544165
   0.55242077  0.41533961  0.49456056
   0.50249420  0.60049647  0.54734972
   0.47542624  0.50187876  0.55107184
   0.43166674  0.57368914  0.60495257
Direct configuration=    38
   0.43944957  0.39952644  0.48640716
   0.44176763  0.55401473  0.36846062
   0.55105401  0.67147955  0.61413379
   0.45688482  0.65147586  0.21160107
   0.63451371  0.48143099  0.50601420
   0.69583384  0.55629400  0.60365780
   0.39332080  0.51098808  0.63426848
   0.47324545  0.57583804  0.46433293
   0.54208165  0.34220262  0.50793720
   0.41839943  0.45954455  0.39429232
   0.57972479  0.27700120  0.48737197
   0.55305998  0.52533779  0.54836012
   0.42007630  0.50627777  0.46748354
   0.39101729  0.48732964  0.55535081
   0.55181458  0.41769340  0.49645266
   0.49975686  0.59830163  0.54865929
   0.47447679  0.50428536  0.55081232
   0.43543334  0.57392835  0.60263458
Direct configuration=    39
   0.44273295  0.39984489  0.48640672
   0.44183002  0.55251700  0.36805497
   0.55153268  0.67054493  0.61388081
   0.45672570  0.65082663  0.21269160
   0.63433987  0.48050704  0.50624411
   0.69443681  0.55608109  0.60289978
   0.39432957  0.51169775  0.63266453
   0.47323023  0.57540515  0.46744170
   0.53954558  0.34365809  0.50628585
   0.41869086  0.45824592  0.39597699
   0.57949301  0.27739763  0.48784032
   0.55246959  0.52462017  0.54794476
   0.42018888  0.50881111  0.46660449
   0.39259842  0.48774173  0.55409694
   0.55115922  0.42124181  0.49811858
   0.49663582  0.59508090  0.54898409
   0.47418503  0.50698055  0.55081394
   0.43778659  0.57174761  0.60128067
Direct configuration=    40
   0.44436993  0.40000366  0.48640649
   0.44186113  0.55177027  0.36785273
   0.55177132  0.67007896  0.61375468
   0.45664637  0.65050295  0.21323531
   0.63425320  0.48004639  0.50635874
   0.69374030  0.55597494  0.60252185
   0.39483250  0.51205156  0.63186486
   0.47322264  0.57518932  0.46899162
   0.53828117  0.34438374  0.50546254
   0.41883616  0.45759846  0.39681691
   0.57937745  0.27759528  0.48807382
   0.55217525  0.52426238  0.54773768
   0.42024500  0.51007415  0.46616622
   0.39338672  0.48794719  0.55347180
   0.55083248  0.42301093  0.49894915
   0.49507978  0.59347516  0.54914602
   0.47403957  0.50832428  0.55081474
   0.43895984  0.57066037  0.60060566
Direct configuration=    41
   0.44554706  0.40077005  0.48713657
   0.44239498  0.55168499  0.36561322
   0.55184262  0.66877312  0.61310032
   0.45651349  0.64997019  0.21417287
   0.63573763  0.47959758  0.50640677
   0.69245817  0.55585738  0.60186345
   0.39611292  0.51315976  0.63020528
   0.47355345  0.57530753  0.47027358
   0.53702135  0.34672463  0.50433198
   0.41877458  0.45670462  0.39774228
   0.57921369  0.27784434  0.48833397
   0.55203165  0.52342076  0.54725726
   0.41893394  0.50928025  0.46724586
   0.39404514  0.48829271  0.55172694
   0.54978247  0.42528969  0.50054455
   0.49621874  0.59315803  0.54933163
   0.47449305  0.50858247  0.55019824
   0.43723589  0.56853190  0.60274607
Direct configuration=    42
   0.44573483  0.40089230  0.48725302
   0.44248013  0.55167139  0.36525599
   0.55185400  0.66856482  0.61299594
   0.45649230  0.64988521  0.21432242
   0.63597441  0.47952599  0.50641443
   0.69225366  0.55583863  0.60175843
   0.39631716  0.51333653  0.62994056
   0.47360622  0.57532639  0.47047807
   0.53682039  0.34709803  0.50415164
   0.41876476  0.45656204  0.39788989
   0.57918757  0.27788407  0.48837547
   0.55200875  0.52328651  0.54718063
   0.41872481  0.50915361  0.46741807
   0.39415016  0.48834782  0.55144862
   0.54961498  0.42565318  0.50079904