       N       E                     dE             d eps       ncg     rms          rms(c)
DAV:   1     0.459332544462E+03    0.45933E+03   -0.19151E+04   144   0.553E+02
DAV:   2     0.111048682693E+03   -0.34828E+03   -0.33926E+03   152   0.177E+02
DAV:   3    -0.228162059864E+02   -0.13386E+03   -0.12872E+03   152   0.853E+01
DAV:   4    -0.453879682065E+02   -0.22572E+02   -0.21267E+02   136   0.373E+01
DAV:   5    -0.468549054600E+02   -0.14669E+01   -0.14215E+01   144   0.100E+01    0.440E+01
DAV:   6    -0.890431723015E+01    0.37951E+02   -0.35720E+02   152   0.782E+01    0.396E+01
DAV:   7    -0.443102017444E+01    0.44733E+01   -0.38435E+02   152   0.121E+02    0.230E+01
DAV:   8     0.765231553264E+01    0.12083E+02   -0.80921E+01   144   0.304E+01    0.169E+01
DAV:   9     0.108280344535E+02    0.31757E+01   -0.14112E+01   152   0.132E+01    0.112E+01
DAV:  10     0.120931884816E+02    0.12652E+01   -0.12620E+01   152   0.116E+01    0.649E+00
DAV:  11     0.124712478231E+02    0.37806E+00   -0.67500E+00   152   0.117E+01    0.417E+00
DAV:  12     0.125778376225E+02    0.10659E+00   -0.31744E+00   144   0.563E+00    0.295E+00
DAV:  13     0.126616729078E+02    0.83835E-01   -0.15812E+00   152   0.256E+00    0.228E+00
DAV:  14     0.126775064136E+02    0.15834E-01   -0.89885E-01   152   0.249E+00    0.134E+00
DAV:  15     0.127049338353E+02    0.27427E-01   -0.19843E-01   152   0.129E+00    0.629E-01
DAV:  16     0.126965665410E+02   -0.83673E-02   -0.10902E-01   144   0.986E-01    0.992E-01
DAV:  17     0.126982346595E+02    0.16681E-02   -0.13335E-01   144   0.109E+00    0.648E-01
DAV:  18     0.126995927549E+02    0.13581E-02   -0.17436E-02   136   0.450E-01    0.161E-01
DAV:  19     0.126955388030E+02   -0.40540E-02   -0.60091E-03   136   0.224E-01    0.129E-01
DAV:  20     0.126891684628E+02   -0.63703E-02   -0.49141E-03   136   0.170E-01    0.198E-01
DAV:  21     0.126837909197E+02   -0.53775E-02   -0.36817E-03   136   0.225E-01    0.686E-02
DAV:  22     0.126808529554E+02   -0.29380E-02   -0.87625E-04    96   0.101E-01    0.315E-02
DAV:  23     0.126780167949E+02   -0.28362E-02   -0.22840E-04    88   0.434E-02    0.293E-02
DAV:  24     0.126750941678E+02   -0.29226E-02   -0.28067E-04    88   0.395E-02    0.122E-02
DAV:  25     0.126735118380E+02   -0.15823E-02   -0.89327E-05    72   0.242E-02    0.912E-03
DAV:  26     0.126719334585E+02   -0.15784E-02   -0.21347E-04    88   0.272E-02    0.633E-03
DAV:  27     0.126716303390E+02   -0.30312E-03   -0.21283E-05    72   0.151E-02    0.120E-02
DAV:  28     0.126713412549E+02   -0.28908E-03   -0.31650E-05    64   0.149E-02    0.320E-03
DAV:  29     0.126712818565E+02   -0.59398E-04   -0.73789E-06    48   0.773E-03
   1 F= 0.12671282E+02 E0= 0.12747697E+02  d E =0.126713E+02
       N       E                     dE             d eps       ncg     rms          rms(c)
DAV:   1     0.499787623667E+03    0.48712E+03   -0.17190E+04   136   0.526E+02    0.110E+02
DAV:   2     0.286415567735E+03   -0.21337E+03   -0.36209E+03   144   0.309E+02    0.642E+01
DAV:   3     0.283583492311E+03   -0.28321E+01   -0.14610E+03   168   0.206E+02    0.511E+01
DAV:   4     0.310656198986E+03    0.27073E+02   -0.16060E+02   152   0.537E+01    0.405E+01
DAV:   5     0.298803578597E+03   -0.11853E+02   -0.30946E+02   144   0.685E+01    0.300E+01
DAV:   6     0.292673071482E+03   -0.61305E+01   -0.39984E+02   168   0.288E+01    0.458E+01
DAV:   7     0.301599896929E+03    0.89268E+01   -0.64720E+01   136   0.217E+01    0.460E+01
DAV:   8     0.304623871744E+03    0.30240E+01   -0.41405E+00   160   0.596E+00    0.446E+01
DAV:   9     0.318407773427E+03    0.13784E+02   -0.30012E+01   152   0.150E+01    0.205E+01
DAV:  10     0.315940370981E+03   -0.24674E+01   -0.92743E+01   144   0.112E+01    0.391E+01
DAV:  11     0.314924987149E+03   -0.10154E+01   -0.21436E+02   160   0.259E+01    0.174E+01
DAV:  12     0.317376245504E+03    0.24513E+01   -0.10009E+01   136   0.114E+01    0.149E+01
DAV:  13     0.319241050226E+03    0.18648E+01   -0.13818E+00   144   0.340E+00    0.141E+01
DAV:  14     0.320258025064E+03    0.10170E+01   -0.35922E-01   144   0.133E+00    0.136E+01
DAV:  15     0.321137876042E+03    0.87985E+00   -0.15852E+01   152   0.578E+00    0.169E+01
DAV:  16     0.321216839684E+03    0.78964E-01   -0.37986E+00   144   0.409E+00    0.162E+01
DAV:  17     0.321466290875E+03    0.24945E+00   -0.97621E-01   152   0.197E+00    0.148E+01
DAV:  18     0.321289324418E+03   -0.17697E+00   -0.15807E+00   160   0.134E+00    0.150E+01
DAV:  19     0.321714189704E+03    0.42487E+00   -0.40263E+00   152   0.141E+00    0.150E+01
DAV:  20     0.322415175531E+03    0.70099E+00   -0.29145E+00   160   0.235E+00    0.120E+01
DAV:  21     0.322556792848E+03    0.14162E+00   -0.20940E+00   144   0.182E+00    0.118E+01
DAV:  22     0.322951911713E+03    0.39512E+00   -0.57920E-01   144   0.957E-01    0.118E+01
DAV:  23     0.323043774757E+03    0.91863E-01   -0.16819E-02   152   0.363E-01    0.116E+01
DAV:  24     0.322989964409E+03   -0.53810E-01   -0.38028E-03   136   0.220E-01    0.116E+01
DAV:  25     0.323323580642E+03    0.33362E+00   -0.56579E-02   168   0.606E-01    0.117E+01
DAV:  26     0.324539020445E+03    0.12154E+01   -0.68132E-01   160   0.165E+00    0.916E+00
DAV:  27     0.324647348059E+03    0.10833E+00   -0.96060E-02   144   0.594E-01    0.857E+00
DAV:  28     0.324764598468E+03    0.11725E+00   -0.61105E-02   152   0.330E-01    0.695E+00
DAV:  29     0.324806518842E+03    0.41920E-01   -0.25494E-02   144   0.250E-01    0.559E+00
DAV:  30     0.324527499477E+03   -0.27902E+00   -0.20256E+00   160   0.117E+00    0.148E+01
DAV:  31     0.324704859623E+03    0.17736E+00   -0.23736E-01   144   0.775E-01    0.101E+01
DAV:  32     0.324727370845E+03    0.22511E-01   -0.11747E-02   152   0.195E-01    0.970E+00
DAV:  33     0.324855591092E+03    0.12822E+00   -0.38936E-01   160   0.364E-01    0.368E+00
DAV:  34     0.324756638512E+03   -0.98953E-01   -0.52538E-01   160   0.711E-01    0.775E+00
DAV:  35     0.324799736328E+03    0.43098E-01   -0.43489E-02   120   0.594E-01    0.731E+00
DAV:  36     0.324945051019E+03    0.14531E+00   -0.37498E-01   152   0.910E-01    0.388E+00
DAV:  37     0.324970925817E+03    0.25875E-01   -0.14493E-02   144   0.325E-01    0.348E+00
DAV:  38     0.325011945050E+03    0.41019E-01   -0.10605E-01   152   0.337E-01    0.288E+00
DAV:  39     0.325027967272E+03    0.16022E-01   -0.15227E-01   144   0.471E-01    0.399E+00
DAV:  40     0.325032472535E+03    0.45053E-02   -0.36582E-03   144   0.164E-01    0.408E+00
DAV:  41     0.325019047628E+03   -0.13425E-01   -0.91914E-03   120   0.127E-01    0.525E+00
DAV:  42     0.325025495849E+03    0.64482E-02   -0.91488E-04    88   0.526E-02    0.489E+00
DAV:  43     0.325017465466E+03   -0.80304E-02   -0.19989E-03    96   0.460E-02    0.548E+00
DAV:  44     0.325022316397E+03    0.48509E-02   -0.94998E-04    80   0.512E-02    0.520E+00
DAV:  45     0.325018460473E+03   -0.38559E-02   -0.65348E-04    88   0.594E-02    0.533E+00
DAV:  46     0.325021067385E+03    0.26069E-02   -0.18063E-04    72   0.329E-02    0.521E+00
DAV:  47     0.325052365424E+03    0.31298E-01   -0.38388E-02   136   0.177E-01    0.287E+00
DAV:  48     0.325059972916E+03    0.76075E-02   -0.16689E-01   144   0.334E-01    0.350E+00
DAV:  49     0.325081680044E+03    0.21707E-01   -0.17015E-02   144   0.265E-01    0.257E+00
DAV:  50     0.325090130421E+03    0.84504E-02   -0.56613E-03   144   0.116E-01    0.190E+00
DAV:  51     0.325094123447E+03    0.39930E-02   -0.11181E-02   136   0.109E-01    0.125E+00
DAV:  52     0.325019336046E+03   -0.74787E-01   -0.42282E-01   160   0.560E-01    0.764E+00
DAV:  53     0.325000567554E+03   -0.18768E-01   -0.21501E-02   136   0.290E-01    0.886E+00
DAV:  54     0.324984964914E+03   -0.15603E-01   -0.58686E-03   112   0.107E-01    0.947E+00
DAV:  55     0.324986127136E+03    0.11622E-02   -0.13444E-03   120   0.623E-02    0.964E+00
DAV:  56     0.324982933766E+03   -0.31934E-02   -0.32709E-04    80   0.390E-02    0.974E+00
DAV:  57     0.325119940935E+03    0.13701E+00   -0.63026E-01   144   0.551E-01    0.180E+00
DAV:  58     0.325112496562E+03   -0.74444E-02   -0.74114E-02   144   0.320E-01    0.138E+00
DAV:  59     0.325104254126E+03   -0.82424E-02   -0.69735E-02   144   0.216E-01    0.185E+00
DAV:  60     0.325100190196E+03   -0.40639E-02   -0.19983E-02   136   0.187E-01
   2 F= 0.32510019E+03 E0= 0.32524853E+03  d E =0.312429E+03
       N       E                     dE             d eps       ncg     rms          rms(c)
DAV:   1     0.117442589831E+02   -0.31336E+03   -0.97814E+03   128   0.578E+02    0.106E+02
DAV:   2    -0.440176147727E+02   -0.55762E+02   -0.18654E+03   128   0.174E+02    0.464E+01
DAV:   3    -0.610317797870E+02   -0.17014E+02   -0.45553E+02   176   0.775E+01    0.500E+01
DAV:   4    -0.586977982990E+02    0.23340E+01   -0.42242E+02   144   0.876E+01    0.304E+01
DAV:   5    -0.573794011197E+02    0.13184E+01   -0.10375E+02   136   0.237E+01    0.228E+01
DAV:   6    -0.517649611691E+02    0.56144E+01   -0.36671E+01   168   0.176E+01    0.143E+01
DAV:   7    -0.576318313070E+02   -0.58669E+01   -0.52995E+01   168   0.174E+01    0.338E+01
DAV:   8    -0.551867938197E+02    0.24450E+01   -0.10461E+02   152   0.297E+01    0.113E+01
DAV:   9    -0.532501871949E+02    0.19366E+01   -0.71957E+00   144   0.890E+00    0.873E+00
DAV:  10    -0.522827065858E+02    0.96748E+00   -0.31463E+00   144   0.523E+00    0.421E+00
DAV:  11    -0.522322230933E+02    0.50483E-01   -0.11839E+00   160   0.272E+00    0.261E+00
DAV:  12    -0.522952232490E+02   -0.63000E-01   -0.94762E-01   144   0.162E+00    0.508E+00
DAV:  13    -0.522390137850E+02    0.56209E-01   -0.10006E+00   144   0.129E+00    0.168E+00
DAV:  14    -0.522650272533E+02   -0.26013E-01   -0.11358E-01   168   0.124E+00    0.206E+00
DAV:  15    -0.522642998800E+02    0.72737E-03   -0.21280E-02   144   0.474E-01    0.184E+00
DAV:  16    -0.522542800779E+02    0.10020E-01   -0.80168E-02   144   0.367E-01    0.370E-01
DAV:  17    -0.522542084063E+02    0.71672E-04   -0.12678E-03   128   0.129E-01    0.332E-01
DAV:  18    -0.522566305747E+02   -0.24222E-02   -0.14753E-03   120   0.101E-01    0.348E-01
DAV:  19    -0.522624685125E+02   -0.58379E-02   -0.12340E-02   128   0.181E-01    0.486E-01
DAV:  20    -0.522645778953E+02   -0.21094E-02   -0.12048E-03   120   0.130E-01    0.580E-01
DAV:  21    -0.522646240014E+02   -0.46106E-04   -0.61410E-03   120   0.135E-01    0.192E-01
DAV:  22    -0.522657660436E+02   -0.11420E-02   -0.66245E-04    96   0.673E-02    0.156E-01
DAV:  23    -0.522667113877E+02   -0.94534E-03   -0.51935E-04    96   0.487E-02    0.179E-01
DAV:  24    -0.522672609296E+02   -0.54954E-03   -0.63319E-04    88   0.536E-02    0.869E-02
DAV:  25    -0.522677505797E+02   -0.48965E-03   -0.23570E-04    72   0.399E-02    0.119E-01
DAV:  26    -0.522678873400E+02   -0.13676E-03   -0.54920E-05    72   0.236E-02    0.868E-02
DAV:  27    -0.522682072029E+02   -0.31986E-03   -0.68660E-05    72   0.240E-02    0.547E-02
DAV:  28    -0.522683115444E+02   -0.10434E-03   -0.19688E-05    72   0.160E-02    0.553E-02
DAV:  29    -0.522684303806E+02   -0.11884E-03   -0.35625E-05    48   0.181E-02    0.294E-02
DAV:  30    -0.522684918136E+02   -0.61433E-04   -0.49084E-05    48   0.179E-02
   3 F= -.52268492E+02 E0= -.52212694E+02  d E =-.649398E+02
       N       E                     dE             d eps       ncg     rms          rms(c)
DAV:   1    -0.541873604895E+02   -0.19189E+01   -0.37149E+01    96   0.475E+01    0.212E+00
DAV:   2    -0.544794962921E+02   -0.29214E+00   -0.44461E+00   112   0.968E+00    0.553E+00
DAV:   3    -0.544878335119E+02   -0.83372E-02   -0.35228E+00   144   0.337E+00    0.437E+00
DAV:   4    -0.543601214207E+02    0.12771E+00   -0.66919E-01   160   0.252E+00    0.121E+00
DAV:   5    -0.543597092823E+02    0.41214E-03   -0.13338E-01   144   0.162E+00    0.681E-01
DAV:   6    -0.543616941208E+02   -0.19848E-02   -0.72173E-02   152   0.117E+00    0.704E-01
DAV:   7    -0.543595841320E+02    0.21100E-02   -0.16067E-02   144   0.524E-01    0.531E-01
DAV:   8    -0.543591329475E+02    0.45118E-03   -0.37298E-03   136   0.174E-01    0.260E-01
DAV:   9    -0.543595174071E+02   -0.38446E-03   -0.16600E-03   120   0.128E-01    0.408E-02
DAV:  10    -0.543599434622E+02   -0.42606E-03   -0.20744E-04    72   0.622E-02    0.301E-02
DAV:  11    -0.543600807600E+02   -0.13730E-03   -0.75277E-05    72   0.381E-02    0.140E-02
DAV:  12    -0.543601597180E+02   -0.78958E-04   -0.27193E-05    72   0.247E-02
   4 F= -.54360160E+02 E0= -.54297804E+02  d E =-.670314E+02
       N       E                     dE             d eps       ncg     rms          rms(c)
DAV:   1    -0.552758046962E+02   -0.91572E+00   -0.15203E+02    96   0.939E+01    0.445E+00
DAV:   2    -0.587119861039E+02   -0.34362E+01   -0.37167E+01   128   0.209E+01    0.231E+01
DAV:   3    -0.561674076075E+02    0.25446E+01   -0.19289E+01   136   0.969E+00    0.382E+00
DAV:   4    -0.560618475134E+02    0.10556E+00   -0.13805E+00   152   0.460E+00    0.211E+00
DAV:   5    -0.560295280567E+02    0.32319E-01   -0.49881E-01   136   0.330E+00    0.129E+00
DAV:   6    -0.560307348915E+02   -0.12068E-02   -0.25125E-01   144   0.231E+00    0.807E-01
DAV:   7    -0.560260916012E+02    0.46433E-02   -0.65481E-02   136   0.996E-01    0.404E-01
DAV:   8    -0.560279025813E+02   -0.18110E-02   -0.81444E-03   128   0.338E-01    0.305E-01
DAV:   9    -0.560281711420E+02   -0.26856E-03   -0.33639E-03   144   0.228E-01    0.803E-02
DAV:  10    -0.560285414686E+02   -0.37033E-03   -0.62136E-04   120   0.874E-02    0.440E-02
DAV:  11    -0.560289546057E+02   -0.41314E-03   -0.15837E-04    72   0.564E-02    0.417E-02
DAV:  12    -0.560294128699E+02   -0.45826E-03   -0.10975E-04    72   0.363E-02    0.182E-02
DAV:  13    -0.560297087736E+02   -0.29590E-03   -0.51016E-05    72   0.233E-02    0.115E-02
DAV:  14    -0.560300754936E+02   -0.36672E-03   -0.48477E-05    72   0.209E-02    0.680E-03
DAV:  15    -0.560303246815E+02   -0.24919E-03   -0.42156E-05    72   0.174E-02    0.562E-03
DAV:  16    -0.560304444259E+02   -0.11974E-03   -0.19897E-05    72   0.118E-02    0.242E-03
DAV:  17    -0.560305720702E+02   -0.12764E-03   -0.25616E-05    72   0.108E-02    0.217E-03
DAV:  18    -0.560306284532E+02   -0.56383E-04   -0.13088E-05    72   0.107E-02
   5 F= -.56030628E+02 E0= -.55959427E+02  d E =-.687019E+02
       N       E                     dE             d eps       ncg     rms          rms(c)
DAV:   1    -0.442688514491E+02    0.11762E+02   -0.23897E+03   112   0.330E+02    0.238E+01
DAV:   2    -0.927153272661E+02   -0.48446E+02   -0.74194E+02   144   0.117E+02    0.350E+01
DAV:   3    -0.743127321953E+02    0.18403E+02   -0.19626E+02   152   0.852E+01    0.186E+01
DAV:   4    -0.665888214307E+02    0.77239E+01   -0.23941E+01   136   0.210E+01    0.133E+01
DAV:   5    -0.631919748198E+02    0.33968E+01   -0.29660E+01   160   0.157E+01    0.114E+01
DAV:   6    -0.629061018468E+02    0.28587E+00   -0.13320E+01   144   0.103E+01    0.567E+00
DAV:   7    -0.660357911783E+02   -0.31297E+01   -0.16624E+01   144   0.924E+00    0.270E+01
DAV:   8    -0.625874286869E+02    0.34484E+01   -0.22031E+01   144   0.116E+01    0.296E+00
DAV:   9    -0.627533662792E+02   -0.16594E+00   -0.18035E+00   152   0.419E+00    0.328E+00
DAV:  10    -0.629028947417E+02   -0.14953E+00   -0.59706E-01   152   0.198E+00    0.459E+00
DAV:  11    -0.627009330752E+02    0.20196E+00   -0.26346E-01   144   0.164E+00    0.278E+00
DAV:  12    -0.626630863504E+02    0.37847E-01   -0.56070E-02   160   0.691E-01    0.201E+00
DAV:  13    -0.626550510350E+02    0.80353E-02   -0.68659E-03   136   0.272E-01    0.182E+00
DAV:  14    -0.626354819824E+02    0.19569E-01   -0.27586E-02   152   0.479E-01    0.110E+00
DAV:  15    -0.626336706297E+02    0.18114E-02   -0.16830E-03   144   0.141E-01    0.102E+00
DAV:  16    -0.626311260730E+02    0.25446E-02   -0.60431E-03   144   0.251E-01    0.708E-01
DAV:  17    -0.626297336589E+02    0.13924E-02   -0.62088E-03   144   0.242E-01    0.354E-01
DAV:  18    -0.626301669151E+02   -0.43326E-03   -0.91186E-04   144   0.995E-02    0.260E-01
DAV:  19    -0.626300133521E+02    0.15356E-03   -0.27948E-03   136   0.161E-01    0.447E-02
DAV:  20    -0.626302588990E+02   -0.24555E-03   -0.16609E-04    88   0.487E-02    0.222E-02
DAV:  21    -0.626303422527E+02   -0.83354E-04   -0.34964E-05    72   0.256E-02
   6 F= -.62630342E+02 E0= -.62580379E+02  d E =-.659971E+01
       N       E                     dE             d eps       ncg     rms          rms(c)
DAV:   1    -0.578210742853E+02    0.48092E+01   -0.73117E+02    96   0.185E+02    0.100E+01
DAV:   2    -0.717287671203E+02   -0.13908E+02   -0.12074E+02   120   0.444E+01    0.338E+01
DAV:   3    -0.655759132715E+02    0.61529E+01   -0.58479E+01   160   0.261E+01    0.847E+00
DAV:   4    -0.647702794868E+02    0.80563E+00   -0.80634E+00   144   0.130E+01    0.494E+00
DAV:   5    -0.645071258580E+02    0.26315E+00   -0.23274E+00   136   0.669E+00    0.341E+00
DAV:   6    -0.644551432087E+02    0.51983E-01   -0.95409E-01   144   0.355E+00    0.164E+00
DAV:   7    -0.644082279142E+02    0.46915E-01   -0.40679E-01   144   0.178E+00    0.847E-01
DAV:   8    -0.644106033996E+02   -0.23755E-02   -0.97817E-02   144   0.968E-01    0.416E-01
DAV:   9    -0.644121426037E+02   -0.15392E-02   -0.28876E-02   144   0.470E-01    0.246E-01
DAV:  10    -0.644131272576E+02   -0.98465E-03   -0.65193E-03   136   0.247E-01    0.148E-01
DAV:  11    -0.644137712104E+02   -0.64395E-03   -0.21545E-03   128   0.130E-01    0.708E-02
DAV:  12    -0.644141792242E+02   -0.40801E-03   -0.47252E-04   104   0.884E-02    0.257E-02
DAV:  13    -0.644144728145E+02   -0.29359E-03   -0.84120E-05    72   0.399E-02    0.152E-02
DAV:  14    -0.644148555810E+02   -0.38277E-03   -0.58406E-05    56   0.247E-02    0.998E-03
DAV:  15    -0.644151835736E+02   -0.32799E-03   -0.39954E-05    56   0.176E-02    0.541E-03
DAV:  16    -0.644154461765E+02   -0.26260E-03   -0.33574E-05    56   0.154E-02    0.682E-03
DAV:  17    -0.644156183760E+02   -0.17220E-03   -0.29362E-05    56   0.125E-02    0.355E-03
DAV:  18    -0.644157143533E+02   -0.95977E-04   -0.17334E-05    48   0.924E-03
   7 F= -.64415714E+02 E0= -.64360679E+02  d E =-.838509E+01
       N       E                     dE             d eps       ncg     rms          rms(c)
DAV:   1    -0.657221292542E+02   -0.13065E+01   -0.41985E+02   128   0.167E+02    0.741E+00
DAV:   2    -0.716596960115E+02   -0.59376E+01   -0.64629E+01   144   0.426E+01    0.186E+01
DAV:   3    -0.693229002508E+02    0.23368E+01   -0.38894E+01   128   0.284E+01    0.825E+00
DAV:   4    -0.693082905033E+02    0.14610E-01   -0.81162E+00   144   0.695E+00    0.501E+00
DAV:   5    -0.691085295491E+02    0.19976E+00   -0.11002E+00   136   0.331E+00    0.323E+00
DAV:   6    -0.691290009075E+02   -0.20471E-01   -0.73107E-01   144   0.329E+00    0.290E+00
DAV:   7    -0.691436377435E+02   -0.14637E-01   -0.25316E-01   152   0.159E+00    0.254E+00
DAV:   8    -0.690989167844E+02    0.44721E-01   -0.12600E-01   152   0.132E+00    0.138E+00
DAV:   9    -0.690819370865E+02    0.16980E-01   -0.61337E-02   152   0.928E-01    0.638E-01
DAV:  10    -0.690792186508E+02    0.27184E-02   -0.11385E-02   152   0.402E-01    0.379E-01
DAV:  11    -0.690781137388E+02    0.11049E-02   -0.45343E-03   144   0.248E-01    0.235E-01
DAV:  12    -0.690776256395E+02    0.48810E-03   -0.38789E-03   152   0.255E-01    0.760E-02
DAV:  13    -0.690779524052E+02   -0.32677E-03   -0.77058E-04   136   0.109E-01    0.350E-02
DAV:  14    -0.690782134806E+02   -0.26108E-03   -0.88204E-05    72   0.406E-02    0.187E-02
DAV:  15    -0.690784043272E+02   -0.19085E-03   -0.37785E-05    72   0.250E-02    0.108E-02
DAV:  16    -0.690785727961E+02   -0.16847E-03   -0.18961E-05    72   0.153E-02    0.896E-03
DAV:  17    -0.690787800949E+02   -0.20730E-03   -0.38351E-05    72   0.242E-02    0.489E-03
DAV:  18    -0.690788665941E+02   -0.86499E-04   -0.17107E-05    72   0.125E-02
   8 F= -.69078867E+02 E0= -.69039345E+02  d E =-.466315E+01
       N       E                     dE             d eps       ncg     rms          rms(c)
DAV:   1    -0.691331804754E+02   -0.54400E-01   -0.38775E+01   128   0.567E+01    0.195E+00
DAV:   2    -0.696390975847E+02   -0.50592E+00   -0.62008E+00   128   0.123E+01    0.273E+00
DAV:   3    -0.695511750404E+02    0.87923E-01   -0.10932E+00   136   0.456E+00    0.156E+00
DAV:   4    -0.695683586850E+02   -0.17184E-01   -0.48102E-01   136   0.172E+00    0.224E+00
DAV:   5    -0.695342947208E+02    0.34064E-01   -0.26062E-01   144   0.140E+00    0.713E-01
DAV:   6    -0.695394994035E+02   -0.52047E-02   -0.33417E-02   136   0.852E-01    0.382E-01
DAV:   7    -0.695384421258E+02    0.10573E-02   -0.16172E-02   144   0.411E-01    0.160E-01
DAV:   8    -0.695386994029E+02   -0.25728E-03   -0.34671E-03   144   0.177E-01    0.560E-02
DAV:   9    -0.695388765829E+02   -0.17718E-03   -0.46625E-04    88   0.826E-02    0.353E-02
DAV:  10    -0.695389992366E+02   -0.12265E-03   -0.11419E-04    72   0.543E-02    0.180E-02
DAV:  11    -0.695391027018E+02   -0.10347E-03   -0.47713E-05    72   0.302E-02    0.694E-03
DAV:  12    -0.695391915473E+02   -0.88846E-04   -0.19982E-05    72   0.177E-02
   9 F= -.69539192E+02 E0= -.69507700E+02  d E =-.512348E+01
       N       E                     dE             d eps       ncg     rms          rms(c)
DAV:   1    -0.681663491000E+02    0.13728E+01   -0.15854E+02   128   0.108E+02    0.395E+00
DAV:   2    -0.701730448439E+02   -0.20067E+01   -0.23282E+01   128   0.243E+01    0.761E+00
DAV:   3    -0.699662800353E+02    0.20676E+00   -0.99728E+00   144   0.970E+00    0.518E+00
DAV:   4    -0.696628150850E+02    0.30346E+00   -0.14292E+00   152   0.484E+00    0.184E+00
DAV:   5    -0.696446208633E+02    0.18194E-01   -0.28124E-01   136   0.245E+00    0.152E+00
DAV:   6    -0.696618318487E+02   -0.17211E-01   -0.27871E-01   152   0.215E+00    0.194E+00
DAV:   7    -0.696394094320E+02    0.22422E-01   -0.10391E-01   144   0.102E+00    0.593E-01
DAV:   8    -0.696394985905E+02   -0.89159E-04   -0.21503E-02   144   0.386E-01    0.195E-01
DAV:   9    -0.696403271680E+02   -0.82858E-03   -0.32192E-03   144   0.197E-01    0.866E-02
DAV:  10    -0.696407627426E+02   -0.43557E-03   -0.65847E-04   112   0.931E-02    0.397E-02
DAV:  11    -0.696411178601E+02   -0.35512E-03   -0.11356E-04    72   0.497E-02    0.209E-02
DAV:  12    -0.696413983872E+02   -0.28053E-03   -0.64477E-05    72   0.287E-02    0.101E-02
DAV:  13    -0.696416615454E+02   -0.26316E-03   -0.31334E-05    72   0.209E-02    0.604E-03
DAV:  14    -0.696418943800E+02   -0.23283E-03   -0.31466E-05    72   0.146E-02    0.345E-03
DAV:  15    -0.696420763271E+02   -0.18195E-03   -0.26271E-05    72   0.117E-02    0.305E-03
DAV:  16    -0.696421930511E+02   -0.11672E-03   -0.20639E-05    72   0.980E-03    0.145E-03
DAV:  17    -0.696422476059E+02   -0.54555E-04   -0.11643E-05    72   0.735E-03
  10 F= -.69642248E+02 E0= -.69611111E+02  d E =-.522653E+01
       N       E                     dE             d eps       ncg     rms          rms(c)
DAV:   1    -0.700471885399E+02   -0.40500E+00   -0.33324E+02   112   0.151E+02    0.767E+00
DAV:   2    -0.795386002764E+02   -0.94914E+01   -0.81509E+01   128   0.401E+01    0.304E+01
DAV:   3    -0.736074881579E+02    0.59311E+01   -0.65762E+01   144   0.292E+01    0.675E+00
DAV:   4    -0.734872393355E+02    0.12025E+00   -0.45228E+00   144   0.799E+00    0.478E+00
DAV:   5    -0.733353710002E+02    0.15187E+00   -0.14724E+00   152   0.492E+00    0.405E+00
DAV:   6    -0.732438167010E+02    0.91554E-01   -0.10896E+00   136   0.446E+00    0.173E+00
DAV:   7    -0.732134281842E+02    0.30389E-01   -0.27526E-01   136   0.171E+00    0.669E-01
DAV:   8    -0.732198524558E+02   -0.64243E-02   -0.40727E-02   144   0.656E-01    0.593E-01
DAV:   9    -0.732196955318E+02    0.15692E-03   -0.14090E-02   144   0.409E-01    0.263E-01
DAV:  10    -0.732200861778E+02   -0.39065E-03   -0.41485E-03   152   0.269E-01    0.168E-01
DAV:  11    -0.732204263069E+02   -0.34013E-03   -0.87550E-04   112   0.115E-01    0.683E-02
DAV:  12    -0.732208522388E+02   -0.42593E-03   -0.32664E-04    96   0.680E-02    0.236E-02
DAV:  13    -0.732213010701E+02   -0.44883E-03   -0.93441E-05    72   0.400E-02    0.131E-02
DAV:  14    -0.732218564728E+02   -0.55540E-03   -0.11063E-04    80   0.318E-02    0.192E-02
DAV:  15    -0.732222091973E+02   -0.35272E-03   -0.41857E-05    72   0.211E-02    0.144E-02
DAV:  16    -0.732224831591E+02   -0.27396E-03   -0.43269E-05    72   0.169E-02    0.639E-03
DAV:  17    -0.732226869921E+02   -0.20383E-03   -0.34830E-05    64   0.140E-02    0.290E-03
DAV:  18    -0.732227858430E+02   -0.98851E-04   -0.17074E-05    48   0.103E-02
  11 F= -.73222786E+02 E0= -.73189001E+02  d E =-.358054E+01
       N       E                     dE             d eps       ncg     rms          rms(c)
DAV:   1    -0.727915442465E+02    0.43114E+00   -0.16973E+02   112   0.111E+02    0.489E+00
DAV:   2    -0.782880856800E+02   -0.54965E+01   -0.40969E+01   136   0.279E+01    0.260E+01
DAV:   3    -0.742882792395E+02    0.39998E+01   -0.35543E+01   144   0.193E+01    0.297E+00
DAV:   4    -0.743798883216E+02   -0.91609E-01   -0.14869E+00   144   0.391E+00    0.234E+00
DAV:   5    -0.744525538139E+02   -0.72665E-01   -0.85203E-01   152   0.287E+00    0.395E+00
DAV:   6    -0.743471843122E+02    0.10537E+00   -0.97411E-01   152   0.290E+00    0.162E+00
DAV:   7    -0.743325550808E+02    0.14629E-01   -0.89868E-02   144   0.102E+00    0.758E-01
DAV:   8    -0.743305564404E+02    0.19986E-02   -0.23784E-02   144   0.476E-01    0.346E-01
DAV:   9    -0.743308589469E+02   -0.30251E-03   -0.52003E-03   144   0.257E-01    0.181E-01
DAV:  10    -0.743316797812E+02   -0.82083E-03   -0.20017E-03   136   0.148E-01    0.950E-02
DAV:  11    -0.743321467081E+02   -0.46693E-03   -0.36033E-04    88   0.718E-02    0.671E-02
DAV:  12    -0.743323364944E+02   -0.18979E-03   -0.14482E-04    72   0.600E-02    0.328E-02
DAV:  13    -0.743324935790E+02   -0.15708E-03   -0.82161E-05    72   0.316E-02    0.157E-02
DAV:  14    -0.743327638529E+02   -0.27027E-03   -0.92442E-05    88   0.290E-02    0.924E-03
DAV:  15    -0.743329486745E+02   -0.18482E-03   -0.25877E-05    56   0.171E-02    0.855E-03
DAV:  16    -0.743330776241E+02   -0.12895E-03   -0.18279E-05    48   0.114E-02    0.688E-03
DAV:  17    -0.743332143875E+02   -0.13676E-03   -0.18367E-05    56   0.976E-03    0.361E-03
DAV:  18    -0.743332840158E+02   -0.69628E-04   -0.11659E-05    48   0.731E-03
  12 F= -.74333284E+02 E0= -.74309064E+02  d E =-.469104E+01
       N       E                     dE             d eps       ncg     rms          rms(c)
DAV:   1    -0.660031112719E+02    0.83301E+01   -0.67063E+02   120   0.206E+02    0.838E+00
DAV:   2    -0.855057890813E+02   -0.19503E+02   -0.13484E+02   128   0.526E+01    0.405E+01
DAV:   3    -0.744157194751E+02    0.11090E+02   -0.62137E+01   152   0.338E+01    0.616E+00
DAV:   4    -0.743314850929E+02    0.84234E-01   -0.57955E+00   136   0.700E+00    0.586E+00
DAV:   5    -0.740620390262E+02    0.26945E+00   -0.25787E+00   152   0.565E+00    0.496E+00
DAV:   6    -0.739281976347E+02    0.13384E+00   -0.21360E+00   144   0.446E+00    0.299E+00
DAV:   7    -0.738407013415E+02    0.87496E-01   -0.36204E-01   144   0.208E+00    0.115E+00
DAV:   8    -0.738366392865E+02    0.40621E-02   -0.96904E-02   144   0.806E-01    0.561E-01
DAV:   9    -0.738399646582E+02   -0.33254E-02   -0.49829E-02   144   0.457E-01    0.339E-01
DAV:  10    -0.738401724372E+02   -0.20778E-03   -0.13135E-02   136   0.251E-01    0.154E-01
DAV:  11    -0.738412405140E+02   -0.10681E-02   -0.21118E-03   136   0.149E-01    0.768E-02
DAV:  12    -0.738419988144E+02   -0.75830E-03   -0.29924E-04    80   0.628E-02    0.480E-02
DAV:  13    -0.738425528324E+02   -0.55402E-03   -0.20241E-04    72   0.429E-02    0.189E-02
DAV:  14    -0.738429731240E+02   -0.42029E-03   -0.88941E-05    80   0.280E-02    0.122E-02
DAV:  15    -0.738436561730E+02   -0.68305E-03   -0.67785E-05    72   0.240E-02    0.615E-03
DAV:  16    -0.738441957248E+02   -0.53955E-03   -0.10042E-04    80   0.191E-02    0.845E-03
DAV:  17    -0.738444263463E+02   -0.23062E-03   -0.22734E-05    72   0.128E-02    0.524E-03
DAV:  18    -0.738446413155E+02   -0.21497E-03   -0.37322E-05    72   0.120E-02    0.323E-03
DAV:  19    -0.738447212666E+02   -0.79951E-04   -0.13296E-05    72   0.896E-03
  13 F= -.73844721E+02 E0= -.73790033E+02  d E =-.420247E+01
       N       E                     dE             d eps       ncg     rms          rms(c)
DAV:   1    -0.717898728680E+02    0.20548E+01   -0.30209E+02   112   0.144E+02    0.620E+00
DAV:   2    -0.768021213981E+02   -0.50122E+01   -0.56053E+01   144   0.343E+01    0.909E+00
DAV:   3    -0.747224457499E+02    0.20797E+01   -0.79568E+00   144   0.119E+01    0.373E+00
DAV:   4    -0.748304992877E+02   -0.10805E+00   -0.41669E+00   152   0.600E+00    0.468E+00
DAV:   5    -0.746610980709E+02    0.16940E+00   -0.12615E+00   152   0.404E+00    0.284E+00
DAV:   6    -0.745629698728E+02    0.98128E-01   -0.47739E-01   144   0.245E+00    0.105E+00
DAV:   7    -0.745669603628E+02   -0.39905E-02   -0.11567E-01   136   0.120E+00    0.666E-01
DAV:   8    -0.745670100466E+02   -0.49684E-04   -0.50585E-02   144   0.650E-01    0.238E-01
DAV:   9    -0.745678641978E+02   -0.85415E-03   -0.11406E-02   152   0.296E-01    0.142E-01
DAV:  10    -0.745688121065E+02   -0.94791E-03   -0.36535E-03   128   0.181E-01    0.117E-01
DAV:  11    -0.745691591294E+02   -0.34702E-03   -0.10919E-03    96   0.106E-01    0.366E-02
DAV:  12    -0.745696261389E+02   -0.46701E-03   -0.16176E-04    72   0.496E-02    0.155E-02
DAV:  13    -0.745699762656E+02   -0.35013E-03   -0.64023E-05    80   0.253E-02    0.100E-02
DAV:  14    -0.745704612345E+02   -0.48497E-03   -0.75703E-05    80   0.212E-02    0.538E-03
DAV:  15    -0.745707608466E+02   -0.29961E-03   -0.41797E-05    72   0.141E-02    0.503E-03
DAV:  16    -0.745709979754E+02   -0.23713E-03   -0.52419E-05    80   0.129E-02    0.244E-03
DAV:  17    -0.745711142509E+02   -0.11628E-03   -0.18350E-05    72   0.873E-03    0.252E-03
DAV:  18    -0.745711739794E+02   -0.59729E-04   -0.13605E-05    72   0.688E-03
  14 F= -.74571174E+02 E0= -.74533595E+02  d E =-.492893E+01
       N       E                     dE             d eps       ncg     rms          rms(c)
DAV:   1    -0.753730204398E+02   -0.80191E+00   -0.40402E+02   112   0.149E+02    0.602E+00
DAV:   2    -0.791565095315E+02   -0.37835E+01   -0.42791E+01    96   0.335E+01    0.104E+01
DAV:   3    -0.790088132342E+02    0.14770E+00   -0.20065E+01   144   0.129E+01    0.613E+00
DAV:   4    -0.785155017156E+02    0.49331E+00   -0.31548E+00   144   0.492E+00    0.355E+00
DAV:   5    -0.785236710720E+02   -0.81694E-02   -0.23221E+00   152   0.414E+00    0.454E+00
DAV:   6    -0.783587194445E+02    0.16495E+00   -0.17489E+00   144   0.387E+00    0.264E+00
DAV:   7    -0.782920997026E+02    0.66620E-01   -0.26653E-01   144   0.171E+00    0.649E-01
DAV:   8    -0.782968694556E+02   -0.47698E-02   -0.39228E-02   136   0.678E-01    0.292E-01
DAV:   9    -0.782991220220E+02   -0.22526E-02   -0.11365E-02   120   0.314E-01    0.188E-01
DAV:  10    -0.783002342668E+02   -0.11122E-02   -0.60015E-03   136   0.196E-01    0.155E-01
DAV:  11    -0.783006492737E+02   -0.41501E-03   -0.16228E-03   112   0.116E-01    0.539E-02
DAV:  12    -0.783015636054E+02   -0.91433E-03   -0.26628E-04    80   0.588E-02    0.198E-02
DAV:  13    -0.783022273241E+02   -0.66372E-03   -0.96670E-05    72   0.326E-02    0.145E-02
DAV:  14    -0.783030124603E+02   -0.78514E-03   -0.12767E-04    80   0.271E-02    0.112E-02
DAV:  15    -0.783036810611E+02   -0.66860E-03   -0.10368E-04    80   0.220E-02    0.927E-03
DAV:  16    -0.783040556593E+02   -0.37460E-03   -0.45476E-05    72   0.150E-02    0.334E-03
DAV:  17    -0.783042906447E+02   -0.23499E-03   -0.43665E-05    72   0.118E-02    0.287E-03
DAV:  18    -0.783043992798E+02   -0.10864E-03   -0.21201E-05    72   0.867E-03    0.135E-03
DAV:  19    -0.783044609525E+02   -0.61673E-04   -0.14082E-05    72   0.689E-03
  15 F= -.78304461E+02 E0= -.78222274E+02  d E =-.373329E+01
       N       E                     dE             d eps       ncg     rms          rms(c)
DAV:   1    -0.782822002048E+02    0.22199E-01   -0.53702E+01   104   0.571E+01    0.245E+00
DAV:   2    -0.788325964632E+02   -0.55040E+00   -0.73192E+00    96   0.114E+01    0.610E+00
DAV:   3    -0.786896614227E+02    0.14294E+00   -0.52789E+00   152   0.383E+00    0.314E+00
DAV:   4    -0.786313929405E+02    0.58268E-01   -0.10017E+00   144   0.280E+00    0.195E+00
DAV:   5    -0.785713542894E+02    0.60039E-01   -0.33375E-01   152   0.186E+00    0.121E+00
DAV:   6    -0.785837692164E+02   -0.12415E-01   -0.18006E-01   152   0.181E+00    0.148E+00
DAV:   7    -0.785606620368E+02    0.23107E-01   -0.14213E-01   144   0.112E+00    0.613E-01
DAV:   8    -0.785599552550E+02    0.70678E-03   -0.29844E-02   136   0.433E-01    0.187E-01
DAV:   9    -0.785604905374E+02   -0.53528E-03   -0.18605E-03   120   0.145E-01    0.833E-02
DAV:  10    -0.785607355432E+02   -0.24501E-03   -0.40803E-04    88   0.723E-02    0.380E-02
DAV:  11    -0.785609079081E+02   -0.17236E-03   -0.97621E-05    72   0.393E-02    0.163E-02
DAV:  12    -0.785610638480E+02   -0.15594E-03   -0.41493E-05    72   0.241E-02    0.709E-03
DAV:  13    -0.785612365850E+02   -0.17274E-03   -0.23594E-05    72   0.159E-02    0.626E-03
DAV:  14    -0.785613881415E+02   -0.15156E-03   -0.20745E-05    72   0.116E-02    0.265E-03
DAV:  15    -0.785615193141E+02   -0.13117E-03   -0.20327E-05    72   0.940E-03    0.317E-03
DAV:  16    -0.785615989488E+02   -0.79635E-04   -0.15653E-05    72   0.768E-03
  16 F= -.78561599E+02 E0= -.78483316E+02  d E =-.399042E+01
       N       E                     dE             d eps       ncg     rms          rms(c)
DAV:   1    -0.796043502155E+02   -0.10428E+01   -0.22335E+02   120   0.127E+02    0.479E+00
DAV:   2    -0.818987422233E+02   -0.22944E+01   -0.25571E+01    96   0.266E+01    0.787E+00
DAV:   3    -0.816406051072E+02    0.25814E+00   -0.95090E+00   152   0.983E+00    0.400E+00
DAV:   4    -0.813689516998E+02    0.27165E+00   -0.84614E-01   136   0.359E+00    0.155E+00
DAV:   5    -0.813701282197E+02   -0.11765E-02   -0.36968E-01   144   0.262E+00    0.143E+00
DAV:   6    -0.813783456167E+02   -0.82174E-02   -0.48162E-01   136   0.219E+00    0.178E+00
DAV:   7    -0.813452670613E+02    0.33079E-01   -0.29155E-01   144   0.128E+00    0.347E-01
DAV:   8    -0.813486339006E+02   -0.33668E-02   -0.20922E-02   136   0.501E-01    0.204E-01
DAV:   9    -0.813485735596E+02    0.60341E-04   -0.43538E-03   128   0.210E-01    0.110E-01
DAV:  10    -0.813490266786E+02   -0.45312E-03   -0.58550E-04    96   0.881E-02    0.540E-02
DAV:  11    -0.813493709806E+02   -0.34430E-03   -0.18966E-04    88   0.536E-02    0.182E-02
DAV:  12    -0.813496377572E+02   -0.26678E-03   -0.55980E-05    72   0.287E-02    0.836E-03
DAV:  13    -0.813499961226E+02   -0.35837E-03   -0.60168E-05    80   0.214E-02    0.734E-03
DAV:  14    -0.813502359491E+02   -0.23983E-03   -0.29960E-05    72   0.146E-02    0.497E-03
DAV:  15    -0.813504219376E+02   -0.18599E-03   -0.31336E-05    72   0.112E-02    0.214E-03
DAV:  16    -0.813505338554E+02   -0.11192E-03   -0.17798E-05    72   0.872E-03    0.140E-03
DAV:  17    -0.813505921954E+02   -0.58340E-04   -0.11055E-05    72   0.683E-03
  17 F= -.81350592E+02 E0= -.81297254E+02  d E =-.278899E+01
       N       E                     dE             d eps       ncg     rms          rms(c)
DAV:   1    -0.813699712704E+02   -0.19437E-01   -0.69886E+01   112   0.732E+01    0.276E+00
DAV:   2    -0.819545944141E+02   -0.58462E+00   -0.75876E+00    96   0.140E+01    0.332E+00
DAV:   3    -0.819506050905E+02    0.39893E-02   -0.22500E+00   144   0.512E+00    0.295E+00
DAV:   4    -0.818258186925E+02    0.12479E+00   -0.51816E-01   136   0.322E+00    0.889E-01
DAV:   5    -0.818483780202E+02   -0.22559E-01   -0.30259E-01   144   0.189E+00    0.124E+00
DAV:   6    -0.818243411501E+02    0.24037E-01   -0.15683E-01   136   0.147E+00    0.318E-01
DAV:   7    -0.818251265912E+02   -0.78544E-03   -0.12217E-02   128   0.454E-01    0.958E-02
DAV:   8    -0.818253853331E+02   -0.25874E-03   -0.15349E-03   136   0.143E-01    0.629E-02
DAV:   9    -0.818255157778E+02   -0.13044E-03   -0.42035E-04    88   0.787E-02    0.292E-02
DAV:  10    -0.818256581702E+02   -0.14239E-03   -0.98870E-05    72   0.479E-02    0.128E-02
DAV:  11    -0.818257984498E+02   -0.14028E-03   -0.39519E-05    72   0.255E-02    0.696E-03
DAV:  12    -0.818259476114E+02   -0.14916E-03   -0.19381E-05    72   0.163E-02    0.424E-03
DAV:  13    -0.818261027200E+02   -0.15511E-03   -0.21278E-05    72   0.119E-02    0.258E-03
DAV:  14    -0.818262362611E+02   -0.13354E-03   -0.22193E-05    72   0.107E-02    0.180E-03
DAV:  15    -0.818263034801E+02   -0.67219E-04   -0.13015E-05    56   0.838E-03
  18 F= -.81826303E+02 E0= -.81776838E+02  d E =-.326470E+01
       N       E                     dE             d eps       ncg     rms          rms(c)
DAV:   1    -0.825494480286E+02   -0.72321E+00   -0.14000E+02   112   0.105E+02    0.386E+00
DAV:   2    -0.838516925105E+02   -0.13022E+01   -0.15119E+01    96   0.206E+01    0.211E+00
DAV:   3    -0.840070269307E+02   -0.15533E+00   -0.16545E+00   144   0.703E+00    0.417E+00
DAV:   4    -0.838168108181E+02    0.19022E+00   -0.12019E+00   136   0.429E+00    0.105E+00
DAV:   5    -0.838524439511E+02   -0.35633E-01   -0.32369E-01   144   0.216E+00    0.173E+00
DAV:   6    -0.838156049898E+02    0.36839E-01   -0.22742E-01   136   0.236E+00    0.330E-01
DAV:   7    -0.838171594835E+02   -0.15545E-02   -0.15851E-02   128   0.618E-01    0.141E-01
DAV:   8    -0.838174325773E+02   -0.27309E-03   -0.20990E-03   136   0.205E-01    0.994E-02
DAV:   9    -0.838176466794E+02   -0.21410E-03   -0.51591E-04   104   0.998E-02    0.630E-02
DAV:  10    -0.838179248070E+02   -0.27813E-03   -0.20376E-04    88   0.738E-02    0.238E-02
DAV:  11    -0.838180996178E+02   -0.17481E-03   -0.71367E-05    72   0.329E-02    0.107E-02
DAV:  12    -0.838183758532E+02   -0.27624E-03   -0.45242E-05    72   0.237E-02    0.713E-03
DAV:  13    -0.838186343762E+02   -0.25852E-03   -0.34823E-05    72   0.164E-02    0.503E-03
DAV:  14    -0.838188261434E+02   -0.19177E-03   -0.21810E-05    64   0.112E-02    0.269E-03
DAV:  15    -0.838189569034E+02   -0.13076E-03   -0.23495E-05    72   0.872E-03    0.135E-03
DAV:  16    -0.838190208312E+02   -0.63928E-04   -0.79152E-06    48   0.585E-03
  19 F= -.83819021E+02 E0= -.83778352E+02  d E =-.199272E+01
       N       E                     dE             d eps       ncg     rms          rms(c)
DAV:   1    -0.836676152900E+02    0.15134E+00   -0.70817E+01   112   0.769E+01    0.293E+00
DAV:   2    -0.843651639285E+02   -0.69755E+00   -0.79853E+00   104   0.150E+01    0.242E+00
DAV:   3    -0.843614085976E+02    0.37553E-02   -0.10742E+00   144   0.551E+00    0.264E+00
DAV:   4    -0.842725081818E+02    0.88900E-01   -0.41036E-01   136   0.311E+00    0.658E-01
DAV:   5    -0.842769454357E+02   -0.44373E-02   -0.53406E-02   128   0.963E-01    0.339E-01
DAV:   6    -0.842781472178E+02   -0.12018E-02   -0.21004E-02   144   0.905E-01    0.367E-01
DAV:   7    -0.842765419586E+02    0.16053E-02   -0.12373E-02   136   0.686E-01    0.124E-01
DAV:   8    -0.842765972835E+02   -0.55325E-04   -0.24315E-03   136   0.203E-01    0.717E-02
DAV:   9    -0.842767123940E+02   -0.11511E-03   -0.25518E-04    88   0.882E-02    0.364E-02
DAV:  10    -0.842768596521E+02   -0.14726E-03   -0.11875E-04    80   0.452E-02    0.111E-02
DAV:  11    -0.842769741959E+02   -0.11454E-03   -0.28135E-05    72   0.268E-02    0.538E-03
DAV:  12    -0.842771167718E+02   -0.14258E-03   -0.27033E-05    72   0.164E-02    0.450E-03
DAV:  13    -0.842772319551E+02   -0.11518E-03   -0.12541E-05    56   0.122E-02    0.252E-03
DAV:  14    -0.842773402982E+02   -0.10834E-03   -0.18473E-05    72   0.960E-03    0.137E-03
DAV:  15    -0.842773902770E+02   -0.49979E-04   -0.60823E-06    48   0.618E-03
  20 F= -.84277390E+02 E0= -.84236094E+02  d E =-.245109E+01
       N       E                     dE             d eps       ncg     rms          rms(c)
DAV:   1    -0.850791501904E+02   -0.80181E+00   -0.53866E+01   112   0.649E+01    0.251E+00
DAV:   2    -0.857147420088E+02   -0.63559E+00   -0.69558E+00   144   0.143E+01    0.491E+00
DAV:   3    -0.855152210049E+02    0.19952E+00   -0.22822E+00   128   0.676E+00    0.169E+00
DAV:   4    -0.854841449924E+02    0.31076E-01   -0.18995E-01   120   0.196E+00    0.950E-01
DAV:   5    -0.855069917420E+02   -0.22847E-01   -0.22017E-01   144   0.248E+00    0.129E+00
DAV:   6    -0.854776201929E+02    0.29372E-01   -0.13150E-01   128   0.153E+00    0.226E-01
DAV:   7    -0.854789344894E+02   -0.13143E-02   -0.98292E-03   120   0.356E-01    0.111E-01
DAV:   8    -0.854790107779E+02   -0.76288E-04   -0.91604E-04   120   0.143E-01
  21 F= -.85479011E+02 E0= -.85437037E+02  d E =-.120162E+01
       N       E                     dE             d eps       ncg     rms          rms(c)
DAV:   1    -0.854629998825E+02    0.15935E-01   -0.35187E+01   112   0.530E+01    0.195E+00
DAV:   2    -0.858921986150E+02   -0.42920E+00   -0.45489E+00   128   0.111E+01    0.391E+00
DAV:   3    -0.857670306148E+02    0.12517E+00   -0.13532E+00   136   0.508E+00    0.134E+00
DAV:   4    -0.857488588468E+02    0.18172E-01   -0.11461E-01   112   0.152E+00    0.723E-01
DAV:   5    -0.857634258233E+02   -0.14567E-01   -0.13101E-01   144   0.183E+00    0.100E+00
DAV:   6    -0.857454650853E+02    0.17961E-01   -0.83178E-02   128   0.116E+00    0.154E-01
DAV:   7    -0.857466651013E+02   -0.12000E-02   -0.47307E-03   120   0.264E-01    0.631E-02
DAV:   8    -0.857468558357E+02   -0.19073E-03   -0.44392E-04   112   0.986E-02    0.365E-02
DAV:   9    -0.857470250872E+02   -0.16925E-03   -0.12866E-04    88   0.697E-02    0.218E-02
DAV:  10    -0.857472338122E+02   -0.20873E-03   -0.50658E-05    72   0.328E-02    0.115E-02
DAV:  11    -0.857474132883E+02   -0.17948E-03   -0.25895E-05    80   0.203E-02    0.580E-03
DAV:  12    -0.857476197880E+02   -0.20650E-03   -0.23552E-05    64   0.147E-02    0.411E-03
DAV:  13    -0.857477629596E+02   -0.14317E-03   -0.12861E-05    64   0.106E-02    0.279E-03
DAV:  14    -0.857478831663E+02   -0.12021E-03   -0.18847E-05    64   0.799E-03    0.158E-03
DAV:  15    -0.857479509754E+02   -0.67809E-04   -0.79792E-06    56   0.606E-03
  22 F= -.85747951E+02 E0= -.85705345E+02  d E =-.147056E+01
       N       E                     dE             d eps       ncg     rms          rms(c)
DAV:   1    -0.860381785720E+02   -0.29030E+00   -0.55727E+01   112   0.681E+01    0.213E+00
DAV:   2    -0.867213005107E+02   -0.68312E+00   -0.76464E+00   112   0.144E+01    0.299E+00
DAV:   3    -0.866288246291E+02    0.92476E-01   -0.13210E+00   152   0.561E+00    0.141E+00
DAV:   4    -0.866034670762E+02    0.25358E-01   -0.12079E-01   120   0.170E+00    0.670E-01
DAV:   5    -0.866133905151E+02   -0.99234E-02   -0.10026E-01   136   0.146E+00    0.101E+00
DAV:   6    -0.866035973019E+02    0.97932E-02   -0.92505E-02   136   0.138E+00    0.391E-01
DAV:   7    -0.866019964130E+02    0.16009E-02   -0.93594E-03   128   0.476E-01    0.103E-01
DAV:   8    -0.866021674075E+02   -0.17099E-03   -0.93520E-04   128   0.141E-01    0.432E-02
DAV:   9    -0.866022754760E+02   -0.10807E-03   -0.14158E-04    72   0.634E-02    0.200E-02
DAV:  10    -0.866023543798E+02   -0.78904E-04   -0.50817E-05    56   0.351E-02
  23 F= -.86602354E+02 E0= -.86563410E+02  d E =-.854403E+00
       N       E                     dE             d eps       ncg     rms          rms(c)
DAV:   1    -0.863885502295E+02    0.21373E+00   -0.45915E+01   112   0.620E+01    0.187E+00
DAV:   2    -0.869204688051E+02   -0.53192E+00   -0.60054E+00   112   0.130E+01    0.236E+00
DAV:   3    -0.868755718662E+02    0.44897E-01   -0.93257E-01   152   0.508E+00    0.132E+00
DAV:   4    -0.868508318663E+02    0.24740E-01   -0.10994E-01   128   0.172E+00    0.611E-01
DAV:   5    -0.868673618027E+02   -0.16530E-01   -0.12398E-01   136   0.161E+00    0.129E+00
DAV:   6    -0.868488575544E+02    0.18504E-01   -0.10826E-01   136   0.143E+00    0.201E-01
DAV:   7    -0.868492886105E+02   -0.43106E-03   -0.72155E-03   120   0.332E-01    0.814E-02
DAV:   8    -0.868494215023E+02   -0.13289E-03   -0.57962E-04   112   0.118E-01    0.380E-02
DAV:   9    -0.868495791248E+02   -0.15762E-03   -0.15859E-04    72   0.604E-02    0.136E-02
DAV:  10    -0.868496776009E+02   -0.98476E-04   -0.44305E-05    72   0.326E-02
  24 F= -.86849678E+02 E0= -.86815733E+02  d E =-.110173E+01
       N       E                     dE             d eps       ncg     rms          rms(c)
DAV:   1    -0.870918124482E+02   -0.24223E+00   -0.17475E+01   112   0.345E+01    0.134E+00
DAV:   2    -0.872728271560E+02   -0.18101E+00   -0.19127E+00   136   0.727E+00    0.238E+00
DAV:   3    -0.872011816301E+02    0.71646E-01   -0.40836E-01   136   0.398E+00    0.824E-01
DAV:   4    -0.871942244625E+02    0.69572E-02   -0.61320E-02   128   0.113E+00    0.499E-01
DAV:   5    -0.871987538547E+02   -0.45294E-02   -0.70730E-02   136   0.101E+00    0.629E-01
DAV:   6    -0.871924955420E+02    0.62583E-02   -0.39662E-02   136   0.726E-01    0.145E-01
DAV:   7    -0.871929581874E+02   -0.46265E-03   -0.22903E-03   120   0.186E-01    0.418E-02
DAV:   8    -0.871930488458E+02   -0.90658E-04   -0.22425E-04    88   0.602E-02
  25 F= -.87193049E+02 E0= -.87157655E+02  d E =-.343371E+00
       N       E                     dE             d eps       ncg     rms          rms(c)
DAV:   1    -0.872146872531E+02   -0.21729E-01   -0.93596E+00   112   0.253E+01    0.993E-01
DAV:   2    -0.873148049472E+02   -0.10012E+00   -0.10423E+00   136   0.550E+00    0.182E+00
DAV:   3    -0.872726466329E+02    0.42158E-01   -0.22063E-01   136   0.310E+00    0.596E-01
DAV:   4    -0.872704090038E+02    0.22376E-02   -0.40874E-02   128   0.919E-01    0.439E-01
DAV:   5    -0.872709207997E+02   -0.51180E-03   -0.42757E-02   136   0.802E-01    0.400E-01
DAV:   6    -0.872687029333E+02    0.22179E-02   -0.17223E-02   152   0.464E-01    0.119E-01
DAV:   7    -0.872689131363E+02   -0.21020E-03   -0.14413E-03   128   0.183E-01    0.405E-02
DAV:   8    -0.872689864590E+02   -0.73323E-04   -0.20642E-04    72   0.542E-02
  26 F= -.87268986E+02 E0= -.87231959E+02  d E =-.419309E+00
       N       E                     dE             d eps       ncg     rms          rms(c)
DAV:   1    -0.874274223072E+02   -0.15851E+00   -0.11828E+01   104   0.263E+01    0.137E+00
DAV:   2    -0.875468656669E+02   -0.11944E+00   -0.13948E+00   136   0.677E+00    0.212E+00
DAV:   3    -0.874742781541E+02    0.72588E-01   -0.37814E-01   136   0.353E+00    0.705E-01
DAV:   4    -0.874734384117E+02    0.83974E-03   -0.54409E-02   136   0.129E+00    0.560E-01
DAV:   5    -0.874750483912E+02   -0.16100E-02   -0.63808E-02   136   0.125E+00    0.644E-01
DAV:   6    -0.874696516348E+02    0.53968E-02   -0.31132E-02   136   0.872E-01    0.165E-01
DAV:   7    -0.874698034525E+02   -0.15182E-03   -0.27738E-03   136   0.230E-01    0.668E-02
DAV:   8    -0.874699054505E+02   -0.10200E-03   -0.35371E-04    96   0.966E-02    0.337E-02
DAV:   9    -0.874700085081E+02   -0.10306E-03   -0.86958E-05    72   0.419E-02    0.115E-02
DAV:  10    -0.874700707330E+02   -0.62225E-04   -0.25025E-05    72   0.219E-02
  27 F= -.87470071E+02 E0= -.87426359E+02  d E =-.201084E+00
       N       E                     dE             d eps       ncg     rms          rms(c)
DAV:   1    -0.874889585977E+02   -0.18950E-01   -0.40846E+00   104   0.153E+01    0.822E-01
DAV:   2    -0.875300018604E+02   -0.41043E-01   -0.48829E-01   136   0.388E+00    0.128E+00
DAV:   3    -0.875037594614E+02    0.26242E-01   -0.15203E-01   136   0.221E+00    0.417E-01
DAV:   4    -0.875031152226E+02    0.64424E-03   -0.18698E-02   128   0.652E-01    0.256E-01
DAV:   5    -0.875046692310E+02   -0.15540E-02   -0.15590E-02   144   0.641E-01    0.406E-01
DAV:   6    -0.875025089680E+02    0.21603E-02   -0.11077E-02   136   0.557E-01    0.982E-02
DAV:   7    -0.875026184229E+02   -0.10945E-03   -0.10816E-03   128   0.152E-01    0.405E-02
DAV:   8    -0.875026729515E+02   -0.54529E-04   -0.12316E-04    72   0.588E-02
  28 F= -.87502673E+02 E0= -.87455763E+02  d E =-.233686E+00
       N       E                     dE             d eps       ncg     rms          rms(c)
DAV:   1    -0.876140448208E+02   -0.11143E+00   -0.11656E+01   112   0.267E+01    0.972E-01
DAV:   2    -0.876894993237E+02   -0.75455E-01   -0.97104E-01   120   0.536E+00    0.114E+00
DAV:   3    -0.876751780797E+02    0.14321E-01   -0.15826E-01   144   0.226E+00    0.574E-01
DAV:   4    -0.876710106753E+02    0.41674E-02   -0.40123E-02   152   0.102E+00    0.314E-01
DAV:   5    -0.876736371432E+02   -0.26265E-02   -0.18181E-02   136   0.768E-01    0.452E-01
DAV:   6    -0.876707288210E+02    0.29083E-02   -0.14159E-02   136   0.582E-01    0.107E-01
DAV:   7    -0.876709754898E+02   -0.24667E-03   -0.12863E-03   128   0.182E-01    0.495E-02
DAV:   8    -0.876710286892E+02   -0.53199E-04   -0.15870E-04    80   0.780E-02
  29 F= -.87671029E+02 E0= -.87623667E+02  d E =-.168356E+00
       N       E                     dE             d eps       ncg     rms          rms(c)
DAV:   1    -0.876772928627E+02   -0.63174E-02   -0.78408E+00   112   0.219E+01    0.802E-01
DAV:   2    -0.877276772815E+02   -0.50384E-01   -0.64669E-01   120   0.436E+00    0.953E-01
DAV:   3    -0.877168695353E+02    0.10808E-01   -0.10906E-01   136   0.183E+00    0.457E-01
DAV:   4    -0.877140806707E+02    0.27889E-02   -0.27338E-02   136   0.732E-01    0.232E-01
DAV:   5    -0.877155485956E+02   -0.14679E-02   -0.12058E-02   144   0.516E-01    0.343E-01
DAV:   6    -0.877142025422E+02    0.13461E-02   -0.80448E-03   136   0.542E-01    0.968E-02
DAV:   7    -0.877142748235E+02   -0.72281E-04   -0.64266E-04   104   0.110E-01
  30 F= -.87714275E+02 E0= -.87666176E+02  d E =-.211602E+00
       N       E                     dE             d eps       ncg     rms          rms(c)
DAV:   1    -0.878222012145E+02   -0.10800E+00   -0.80919E+00    96   0.215E+01    0.835E-01
DAV:   2    -0.878679431305E+02   -0.45742E-01   -0.66543E-01   120   0.396E+00    0.948E-01
DAV:   3    -0.878628718275E+02    0.50713E-02   -0.15610E-01   136   0.174E+00    0.815E-01
DAV:   4    -0.878550933928E+02    0.77784E-02   -0.44422E-02   136   0.130E+00    0.371E-01
DAV:   5    -0.878548974231E+02    0.19597E-03   -0.17492E-02   136   0.875E-01    0.299E-01
DAV:   6    -0.878544037786E+02    0.49364E-03   -0.11147E-02   144   0.528E-01    0.133E-01
DAV:   7    -0.878542841816E+02    0.11960E-03   -0.17184E-03   128   0.185E-01    0.398E-02
DAV:   8    -0.878543569187E+02   -0.72737E-04   -0.14874E-04    80   0.559E-02
  31 F= -.87854357E+02 E0= -.87807777E+02  d E =-.140082E+00
       N       E                     dE             d eps       ncg     rms          rms(c)
DAV:   1    -0.878691037383E+02   -0.14820E-01   -0.16015E+01    96   0.302E+01    0.118E+00
DAV:   2    -0.879449352755E+02   -0.75832E-01   -0.12557E+00   112   0.547E+00    0.107E+00
DAV:   3    -0.879491030229E+02   -0.41677E-02   -0.31868E-01   144   0.213E+00    0.117E+00
DAV:   4    -0.879301569335E+02    0.18946E-01   -0.10845E-01   144   0.160E+00    0.555E-01
DAV:   5    -0.879292807195E+02    0.87621E-03   -0.35994E-02   136   0.126E+00    0.437E-01
DAV:   6    -0.879281098788E+02    0.11708E-02   -0.20343E-02   136   0.748E-01    0.194E-01
DAV:   7    -0.879278146626E+02    0.29522E-03   -0.34380E-03   128   0.259E-01    0.555E-02
DAV:   8    -0.879279551421E+02   -0.14048E-03   -0.33183E-04    88   0.816E-02    0.315E-02
DAV:   9    -0.879281275316E+02   -0.17239E-03   -0.77309E-05    72   0.409E-02    0.172E-02
DAV:  10    -0.879282831205E+02   -0.15559E-03   -0.33296E-05    56   0.267E-02    0.752E-03
DAV:  11    -0.879284670323E+02   -0.18391E-03   -0.22271E-05    56   0.158E-02    0.382E-03
DAV:  12    -0.879286283096E+02   -0.16128E-03   -0.19908E-05    64   0.112E-02    0.297E-03
DAV:  13    -0.879287689893E+02   -0.14068E-03   -0.20654E-05    56   0.100E-02    0.152E-03
DAV:  14    -0.879288306940E+02   -0.61705E-04   -0.11480E-05    48   0.754E-03
  32 F= -.87928831E+02 E0= -.87886629E+02  d E =-.214556E+00
       N       E                     dE             d eps       ncg     rms          rms(c)
DAV:   1    -0.880317319196E+02   -0.10296E+00   -0.51144E+00   104   0.185E+01    0.684E-01
DAV:   2    -0.880611679571E+02   -0.29436E-01   -0.47046E-01   112   0.343E+00    0.496E-01
DAV:   3    -0.880642797286E+02   -0.31118E-02   -0.88002E-02   160   0.134E+00    0.610E-01
DAV:   4    -0.880584872330E+02    0.57925E-02   -0.28631E-02   136   0.713E-01    0.217E-01
DAV:   5    -0.880595301974E+02   -0.10430E-02   -0.11215E-02   136   0.558E-01    0.304E-01
DAV:   6    -0.880587004535E+02    0.82974E-03   -0.79282E-03   144   0.461E-01    0.107E-01
DAV:   7    -0.880586468088E+02    0.53645E-04   -0.11759E-03   112   0.140E-01    0.328E-02
DAV:   8    -0.880586714896E+02   -0.24681E-04   -0.97761E-05    72   0.503E-02
  33 F= -.88058671E+02 E0= -.88022317E+02  d E =-.129841E+00
       N       E                     dE             d eps       ncg     rms          rms(c)
DAV:   1    -0.881098260918E+02   -0.51179E-01   -0.46236E+01   112   0.552E+01    0.194E+00
DAV:   2    -0.883805019029E+02   -0.27068E+00   -0.40444E+00    96   0.104E+01    0.145E+00
DAV:   3    -0.884203739875E+02   -0.39872E-01   -0.67820E-01   152   0.438E+00    0.221E+00
DAV:   4    -0.883612862661E+02    0.59088E-01   -0.39323E-01   136   0.252E+00    0.681E-01
DAV:   5    -0.883650668088E+02   -0.37805E-02   -0.13398E-01   152   0.108E+00    0.722E-01
DAV:   6    -0.883588551348E+02    0.62117E-02   -0.65057E-02   136   0.103E+00    0.257E-01
DAV:   7    -0.883590267310E+02   -0.17160E-03   -0.65299E-03   128   0.412E-01    0.102E-01
DAV:   8    -0.883590879976E+02   -0.61267E-04   -0.14306E-03   128   0.161E-01    0.568E-02
DAV:   9    -0.883593322798E+02   -0.24428E-03   -0.16286E-04    80   0.688E-02    0.255E-02
DAV:  10    -0.883594997698E+02   -0.16749E-03   -0.58110E-05    72   0.376E-02    0.868E-03
DAV:  11    -0.883597046557E+02   -0.20489E-03   -0.38082E-05    80   0.211E-02    0.514E-03
DAV:  12    -0.883598642908E+02   -0.15964E-03   -0.15718E-05    72   0.131E-02    0.404E-03
DAV:  13    -0.883600269506E+02   -0.16266E-03   -0.24434E-05    80   0.108E-02    0.257E-03
DAV:  14    -0.883601343989E+02   -0.10745E-03   -0.13113E-05    72   0.816E-03    0.151E-03
DAV:  15    -0.883601773670E+02   -0.42968E-04   -0.65599E-06    72   0.590E-03
  34 F= -.88360177E+02 E0= -.88341981E+02  d E =-.431347E+00
       N       E                     dE             d eps       ncg     rms          rms(c)
DAV:   1    -0.868167386758E+02    0.15434E+01   -0.18454E+02   104   0.108E+02    0.451E+00
DAV:   2    -0.887503400306E+02   -0.19336E+01   -0.25423E+01   120   0.240E+01    0.584E+00
DAV:   3    -0.879659747185E+02    0.78437E+00   -0.36848E+00   136   0.967E+00    0.228E+00
DAV:   4    -0.879483371703E+02    0.17638E-01   -0.80411E-01   144   0.497E+00    0.199E+00
DAV:   5    -0.879298737458E+02    0.18463E-01   -0.61411E-01   136   0.353E+00    0.158E+00
DAV:   6    -0.879083967121E+02    0.21477E-01   -0.33832E-01   128   0.144E+00    0.931E-01
DAV:   7    -0.879030311070E+02    0.53656E-02   -0.13785E-01   144   0.662E-01    0.384E-01
DAV:   8    -0.879029995876E+02    0.31519E-04   -0.11805E-02   136   0.596E-01    0.294E-01
DAV:   9    -0.879026282719E+02    0.37132E-03   -0.89457E-03   136   0.259E-01    0.737E-02
DAV:  10    -0.879031775364E+02   -0.54926E-03   -0.56916E-04    88   0.952E-02    0.441E-02
DAV:  11    -0.879036214897E+02   -0.44395E-03   -0.13310E-04    80   0.537E-02    0.133E-02
DAV:  12    -0.879039943428E+02   -0.37285E-03   -0.51873E-05    72   0.276E-02    0.942E-03
DAV:  13    -0.879044162933E+02   -0.42195E-03   -0.57566E-05    80   0.217E-02    0.549E-03
DAV:  14    -0.879046835310E+02   -0.26724E-03   -0.28225E-05    72   0.135E-02    0.341E-03
DAV:  15    -0.879048402769E+02   -0.15675E-03   -0.28425E-05    80   0.998E-03    0.163E-03
DAV:  16    -0.879049125033E+02   -0.72226E-04   -0.71629E-06    72   0.661E-03
  35 F= -.87904913E+02 E0= -.87880866E+02  d E =0.239182E-01
       N       E                     dE             d eps       ncg     rms          rms(c)
DAV:   1    -0.877592407843E+02    0.14560E+00   -0.12266E+02   104   0.893E+01    0.323E+00
DAV:   2    -0.887160398431E+02   -0.95680E+00   -0.12517E+01    96   0.180E+01    0.522E+00
DAV:   3    -0.885239718679E+02    0.19207E+00   -0.53411E+00   152   0.803E+00    0.244E+00
DAV:   4    -0.884218106189E+02    0.10216E+00   -0.40143E-01   136   0.269E+00    0.113E+00
DAV:   5    -0.884431468036E+02   -0.21336E-01   -0.29419E-01   136   0.274E+00    0.173E+00
DAV:   6    -0.884073208879E+02    0.35826E-01   -0.17100E-01   144   0.228E+00    0.273E-01
DAV:   7    -0.884090692386E+02   -0.17484E-02   -0.15059E-02   144   0.478E-01    0.159E-01
DAV:   8    -0.884097077971E+02   -0.63856E-03   -0.41344E-03   128   0.198E-01    0.103E-01
DAV:   9    -0.884100070908E+02   -0.29929E-03   -0.14030E-03   112   0.123E-01    0.629E-02
DAV:  10    -0.884106054860E+02   -0.59840E-03   -0.19633E-04    80   0.674E-02    0.213E-02
DAV:  11    -0.884109919749E+02   -0.38649E-03   -0.79708E-05    72   0.366E-02    0.903E-03
DAV:  12    -0.884114862129E+02   -0.49424E-03   -0.11161E-04    80   0.254E-02    0.832E-03
DAV:  13    -0.884117702299E+02   -0.28402E-03   -0.39709E-05    72   0.174E-02    0.467E-03
DAV:  14    -0.884120182956E+02   -0.24807E-03   -0.74231E-05    80   0.143E-02    0.204E-03
DAV:  15    -0.884121069203E+02   -0.88625E-04   -0.13297E-05    72   0.900E-03
  36 F= -.88412107E+02 E0= -.88395788E+02  d E =-.483276E+00
       N       E                     dE             d eps       ncg     rms          rms(c)
DAV:   1    -0.885614138461E+02   -0.14940E+00   -0.21662E+01   104   0.417E+01    0.145E+00
DAV:   2    -0.888124927023E+02   -0.25108E+00   -0.30443E+00   112   0.844E+00    0.233E+00
DAV:   3    -0.887279921604E+02    0.84501E-01   -0.70917E-01   136   0.348E+00    0.890E-01
DAV:   4    -0.887201018332E+02    0.78903E-02   -0.10909E-01   136   0.132E+00    0.395E-01
DAV:   5    -0.887225888613E+02   -0.24870E-02   -0.24131E-02   136   0.108E+00    0.454E-01
DAV:   6    -0.887204300311E+02    0.21588E-02   -0.18685E-02   136   0.685E-01    0.188E-01
DAV:   7    -0.887203248999E+02    0.10513E-03   -0.69893E-03   136   0.307E-01    0.107E-01
DAV:   8    -0.887203698213E+02   -0.44921E-04   -0.94579E-04   120   0.174E-01
  37 F= -.88720370E+02 E0= -.88703971E+02  d E =-.308263E+00
       N       E                     dE             d eps       ncg     rms          rms(c)
DAV:   1    -0.886589025037E+02    0.61422E-01   -0.30063E+01   104   0.489E+01    0.195E+00
DAV:   2    -0.891019512641E+02   -0.44305E+00   -0.54144E+00   128   0.104E+01    0.347E+00
DAV:   3    -0.888662377441E+02    0.23571E+00   -0.12487E+00   136   0.423E+00    0.919E-01
DAV:   4    -0.888621945599E+02    0.40432E-02   -0.15197E-01   120   0.161E+00    0.558E-01
DAV:   5    -0.888651751533E+02   -0.29806E-02   -0.46548E-02   144   0.140E+00    0.615E-01
DAV:   6    -0.888612850133E+02    0.38901E-02   -0.34682E-02   136   0.904E-01    0.260E-01
DAV:   7    -0.888611130353E+02    0.17198E-03   -0.14647E-02   136   0.448E-01    0.152E-01
DAV:   8    -0.888613007228E+02   -0.18769E-03   -0.17690E-03   128   0.265E-01    0.712E-02
DAV:   9    -0.888614769780E+02   -0.17626E-03   -0.68454E-04    80   0.813E-02    0.233E-02
DAV:  10    -0.888616637974E+02   -0.18682E-03   -0.95486E-05    72   0.432E-02    0.955E-03
DAV:  11    -0.888618544956E+02   -0.19070E-03   -0.32379E-05    80   0.245E-02    0.563E-03
DAV:  12    -0.888620483179E+02   -0.19382E-03   -0.20920E-05    72   0.145E-02    0.358E-03
DAV:  13    -0.888622296909E+02   -0.18137E-03   -0.29935E-05    72   0.113E-02    0.212E-03
DAV:  14    -0.888623261618E+02   -0.96471E-04   -0.10608E-05    72   0.857E-03
  38 F= -.88862326E+02 E0= -.88842005E+02  d E =-.450219E+00
       N       E                     dE             d eps       ncg     rms          rms(c)
DAV:   1    -0.890120687228E+02   -0.14984E+00   -0.15135E+01   104   0.340E+01    0.130E+00
DAV:   2    -0.892379377821E+02   -0.22587E+00   -0.25462E+00   128   0.710E+00    0.282E+00
DAV:   3    -0.891145928632E+02    0.12334E+00   -0.81128E-01   144   0.284E+00    0.719E-01
DAV:   4    -0.891144281407E+02    0.16472E-03   -0.86694E-02   120   0.900E-01    0.479E-01
DAV:   5    -0.891170192740E+02   -0.25911E-02   -0.47872E-02   136   0.121E+00    0.572E-01
DAV:   6    -0.891130562707E+02    0.39630E-02   -0.19252E-02   136   0.868E-01    0.133E-01
DAV:   7    -0.891133213256E+02   -0.26505E-03   -0.30749E-03   136   0.212E-01    0.719E-02
DAV:   8    -0.891133471079E+02   -0.25782E-04   -0.48898E-04   104   0.126E-01
  39 F= -.89113347E+02 E0= -.89086318E+02  d E =-.251021E+00
       N       E                     dE             d eps       ncg     rms          rms(c)
DAV:   1    -0.891178786227E+02   -0.45573E-02   -0.74166E+00   104   0.239E+01    0.100E+00
DAV:   2    -0.892764399265E+02   -0.15856E+00   -0.16708E+00   128   0.508E+00    0.275E+00
DAV:   3    -0.891630556504E+02    0.11338E+00   -0.63264E-01   136   0.229E+00    0.490E-01
DAV:   4    -0.891673957742E+02   -0.43401E-02   -0.43383E-02   136   0.806E-01    0.408E-01
DAV:   5    -0.891671246706E+02    0.27110E-03   -0.22020E-02   136   0.100E+00    0.338E-01
DAV:   6    -0.891661142782E+02    0.10104E-02   -0.69254E-03   136   0.569E-01    0.705E-02
DAV:   7    -0.891663420548E+02   -0.22778E-03   -0.89620E-04   120   0.125E-01    0.357E-02
DAV:   8    -0.891663841748E+02   -0.42120E-04   -0.11858E-04    72   0.636E-02
  40 F= -.89166384E+02 E0= -.89133811E+02  d E =-.304058E+00
       N       E                     dE             d eps       ncg     rms          rms(c)
DAV:   1    -0.893459440626E+02   -0.17960E+00   -0.17742E+01   112   0.374E+01    0.156E+00
DAV:   2    -0.897771640816E+02   -0.43122E+00   -0.51911E+00   120   0.742E+00    0.355E+00
DAV:   3    -0.894611174790E+02    0.31605E+00   -0.74639E-01   120   0.319E+00    0.862E-01
DAV:   4    -0.894649474531E+02   -0.38300E-02   -0.13772E-01   128   0.155E+00    0.583E-01
DAV:   5    -0.894643512069E+02    0.59625E-03   -0.41767E-02   144   0.125E+00    0.447E-01
DAV:   6    -0.894639636832E+02    0.38752E-03   -0.28217E-02   144   0.111E+00    0.342E-01
DAV:   7    -0.894630061316E+02    0.95755E-03   -0.65692E-03   128   0.493E-01    0.137E-01
DAV:   8    -0.894633470252E+02   -0.34089E-03   -0.66845E-03   136   0.136E-01    0.175E-01
DAV:   9    -0.894631344555E+02    0.21257E-03   -0.22739E-03    72   0.707E-02    0.209E-02
DAV:  10    -0.894633153239E+02   -0.18087E-03   -0.43359E-05    64   0.298E-02    0.132E-02
DAV:  11    -0.894634216662E+02   -0.10634E-03   -0.21208E-05    64   0.185E-02    0.753E-03
DAV:  12    -0.894635223954E+02   -0.10073E-03   -0.23480E-05    64   0.125E-02    0.684E-03
DAV:  13    -0.894636136227E+02   -0.91227E-04   -0.15550E-05    64   0.894E-03
  41 F= -.89463614E+02 E0= -.89427297E+02  d E =-.297229E+00
       N       E                     dE             d eps       ncg     rms          rms(c)
DAV:   1    -0.894582844864E+02    0.52379E-02   -0.15972E+01   112   0.354E+01    0.164E+00
DAV:   2    -0.899450158850E+02   -0.48673E+00   -0.61929E+00   128   0.726E+00    0.373E+00
DAV:   3    -0.895612261480E+02    0.38379E+00   -0.82718E-01   136   0.346E+00    0.103E+00
DAV:   4    -0.895594959103E+02    0.17302E-02   -0.16231E-01   136   0.132E+00    0.508E-01
DAV:   5    -0.895585954879E+02    0.90042E-03   -0.23177E-02   136   0.903E-01    0.282E-01
DAV:   6    -0.895618122418E+02   -0.32168E-02   -0.30003E-02   144   0.108E+00    0.509E-01
DAV:   7    -0.895588644660E+02    0.29478E-02   -0.10778E-02   128   0.646E-01    0.198E-01
DAV:   8    -0.895591116668E+02   -0.24720E-03   -0.11343E-02   128   0.147E-01    0.199E-01
DAV:   9    -0.895588894882E+02    0.22218E-03   -0.19156E-03    80   0.681E-02    0.450E-02
DAV:  10    -0.895590052808E+02   -0.11579E-03   -0.25160E-04    72   0.345E-02    0.188E-02
DAV:  11    -0.895590763142E+02   -0.71033E-04   -0.18105E-05    64   0.191E-02
  42 F= -.89559076E+02 E0= -.89520919E+02  d E =-.392692E+00
       N       E                     dE             d eps       ncg     rms          rms(c)
DAV:   1    -0.896230069224E+02   -0.64002E-01   -0.83890E+00   112   0.257E+01    0.752E-01
DAV:   2    -0.897008823368E+02   -0.77875E-01   -0.90995E-01    96   0.474E+00    0.514E-01
DAV:   3    -0.897073618937E+02   -0.64796E-02   -0.10152E-01   152   0.190E+00    0.860E-01
DAV:   4    -0.897015659112E+02    0.57960E-02   -0.10137E-01   144   0.827E-01    0.567E-01
DAV:   5    -0.897002490991E+02    0.13168E-02   -0.46140E-02   144   0.546E-01    0.345E-01
DAV:   6    -0.896999614775E+02    0.28762E-03   -0.76526E-03   136   0.590E-01    0.810E-02
DAV:   7    -0.897001364601E+02   -0.17498E-03   -0.64702E-04   120   0.152E-01    0.290E-02
DAV:   8    -0.897001743925E+02   -0.37932E-04   -0.10526E-04    56   0.673E-02
  43 F= -.89700174E+02 E0= -.89661376E+02  d E =-.141098E+00
       N       E                     dE             d eps       ncg     rms          rms(c)
DAV:   1    -0.896660340755E+02    0.34102E-01   -0.99434E+00   112   0.281E+01    0.813E-01
DAV:   2    -0.897588076478E+02   -0.92774E-01   -0.10778E+00    96   0.517E+00    0.521E-01
DAV:   3    -0.897637561491E+02   -0.49485E-02   -0.80399E-02   152   0.196E+00    0.730E-01
DAV:   4    -0.897592049104E+02    0.45512E-02   -0.62961E-02   136   0.100E+00    0.487E-01
DAV:   5    -0.897604013475E+02   -0.11964E-02   -0.65217E-02   144   0.441E-01    0.563E-01
DAV:   6    -0.897578691683E+02    0.25322E-02   -0.20918E-02   136   0.613E-01    0.854E-02
DAV:   7    -0.897583967195E+02   -0.52755E-03   -0.85820E-04   120   0.163E-01    0.341E-02
DAV:   8    -0.897584615160E+02   -0.64796E-04   -0.14329E-04    72   0.783E-02
  44 F= -.89758462E+02 E0= -.89718867E+02  d E =-.199385E+00
       N       E                     dE             d eps       ncg     rms          rms(c)
DAV:   1    -0.898113820923E+02   -0.52985E-01   -0.68356E+00   104   0.226E+01    0.750E-01
DAV:   2    -0.898837579577E+02   -0.72376E-01   -0.82918E-01   104   0.455E+00    0.165E+00
DAV:   3    -0.898620373270E+02    0.21721E-01   -0.42994E-01   136   0.184E+00    0.945E-01
DAV:   4    -0.898592374547E+02    0.27999E-02   -0.10075E-01   144   0.116E+00    0.573E-01
DAV:   5    -0.898558515747E+02    0.33859E-02   -0.28315E-02   136   0.102E+00    0.235E-01
DAV:   6    -0.898563500984E+02   -0.49852E-03   -0.73518E-03   136   0.544E-01    0.149E-01
DAV:   7    -0.898561587815E+02    0.19132E-03   -0.25020E-03   128   0.284E-01    0.436E-02
DAV:   8    -0.898562533043E+02   -0.94523E-04   -0.19809E-04    80   0.699E-02
  45 F= -.89856253E+02 E0= -.89817277E+02  d E =-.977918E-01
       N       E                     dE             d eps       ncg     rms          rms(c)
DAV:   1    -0.898399682475E+02    0.16191E-01   -0.72134E+00   104   0.232E+01    0.764E-01
DAV:   2    -0.899159482150E+02   -0.75980E-01   -0.86555E-01   112   0.473E+00    0.165E+00
DAV:   3    -0.898945407416E+02    0.21407E-01   -0.43621E-01   144   0.192E+00    0.973E-01
DAV:   4    -0.898906432725E+02    0.38975E-02   -0.10538E-01   144   0.114E+00    0.567E-01
DAV:   5    -0.898874618500E+02    0.31814E-02   -0.29783E-02   136   0.913E-01    0.247E-01
DAV:   6    -0.898879666577E+02   -0.50481E-03   -0.87428E-03   136   0.525E-01    0.162E-01
DAV:   7    -0.898877236699E+02    0.24299E-03   -0.27812E-03   136   0.309E-01    0.448E-02
DAV:   8    -0.898878478662E+02   -0.12420E-03   -0.21368E-04    80   0.732E-02    0.180E-02
DAV:   9    -0.898879277470E+02   -0.79881E-04   -0.50880E-05    48   0.379E-02
  46 F= -.89887928E+02 E0= -.89850009E+02  d E =-.129466E+00
       N       E                     dE             d eps       ncg     rms          rms(c)
DAV:   1    -0.899293239178E+02   -0.41476E-01   -0.37962E+00   112   0.174E+01    0.489E-01
DAV:   2    -0.899645899021E+02   -0.35266E-01   -0.40898E-01    96   0.334E+00    0.941E-01
DAV:   3    -0.899571532040E+02    0.74367E-02   -0.12797E-01   144   0.973E-01    0.487E-01
DAV:   4    -0.899588012804E+02   -0.16481E-02   -0.56590E-02   144   0.829E-01    0.527E-01
DAV:   5    -0.899557602217E+02    0.30411E-02   -0.13839E-02   144   0.677E-01    0.147E-01
DAV:   6    -0.899561319641E+02   -0.37174E-03   -0.24859E-03   128   0.246E-01    0.638E-02
DAV:   7    -0.899562573947E+02   -0.12543E-03   -0.46921E-04   104   0.146E-01    0.416E-02
DAV:   8    -0.899562931458E+02   -0.35751E-04   -0.11905E-04    72   0.660E-02
  47 F= -.89956293E+02 E0= -.89918827E+02  d E =-.683654E-01
       N       E                     dE             d eps       ncg     rms          rms(c)
DAV:   1    -0.898136584895E+02    0.14260E+00   -0.29643E+01   112   0.483E+01    0.139E+00
DAV:   2    -0.901338330334E+02   -0.32017E+00   -0.37303E+00   104   0.933E+00    0.259E+00
DAV:   3    -0.900340636573E+02    0.99769E-01   -0.84551E-01   144   0.282E+00    0.980E-01
DAV:   4    -0.900496875323E+02   -0.15624E-01   -0.28790E-01   136   0.199E+00    0.137E+00
DAV:   5    -0.900280185433E+02    0.21669E-01   -0.87344E-02   136   0.158E+00    0.424E-01
DAV:   6    -0.900293121552E+02   -0.12936E-02   -0.29258E-02   144   0.636E-01    0.286E-01
DAV:   7    -0.900292558776E+02    0.56278E-04   -0.56564E-03   136   0.333E-01    0.101E-01
DAV:   8    -0.900294303388E+02   -0.17446E-03   -0.16364E-03   112   0.162E-01    0.549E-02
DAV:   9    -0.900295915767E+02   -0.16124E-03   -0.71150E-04    80   0.644E-02    0.433E-02
DAV:  10    -0.900297117822E+02   -0.12021E-03   -0.16205E-04    72   0.295E-02    0.741E-03
DAV:  11    -0.900298743855E+02   -0.16260E-03   -0.27090E-05    72   0.189E-02    0.563E-03
DAV:  12    -0.900300089973E+02   -0.13461E-03   -0.21687E-05    72   0.111E-02    0.622E-03
DAV:  13    -0.900301477166E+02   -0.13872E-03   -0.24425E-05    72   0.102E-02    0.204E-03
DAV:  14    -0.900302129754E+02   -0.65259E-04   -0.68090E-06    56   0.687E-03
  48 F= -.90030213E+02 E0= -.89994397E+02  d E =-.142285E+00
       N       E                     dE             d eps       ncg     rms          rms(c)
DAV:   1    -0.900626822971E+02   -0.32535E-01   -0.39070E+00   112   0.183E+01    0.522E-01
DAV:   2    -0.901046910699E+02   -0.42009E-01   -0.47883E-01    96   0.347E+00    0.806E-01
DAV:   3    -0.901034574607E+02    0.12336E-02   -0.15860E-01   152   0.103E+00    0.708E-01
DAV:   4    -0.900993247269E+02    0.41327E-02   -0.57285E-02   144   0.391E-01    0.239E-01
DAV:   5    -0.901001479603E+02   -0.82323E-03   -0.82917E-03   136   0.578E-01    0.249E-01
DAV:   6    -0.900997507224E+02    0.39724E-03   -0.46545E-03   144   0.544E-01    0.116E-01
DAV:   7    -0.900996765948E+02    0.74128E-04   -0.14970E-03   112   0.186E-01    0.320E-02
DAV:   8    -0.900997101692E+02   -0.33574E-04   -0.14165E-04    80   0.642E-02
  49 F= -.90099710E+02 E0= -.90064178E+02  d E =-.694972E-01
       N       E                     dE             d eps       ncg     rms          rms(c)
DAV:   1    -0.898576575501E+02    0.24202E+00   -0.35167E+01   112   0.544E+01    0.160E+00
DAV:   2    -0.902286699665E+02   -0.37101E+00   -0.42365E+00   112   0.104E+01    0.199E+00
DAV:   3    -0.902528880647E+02   -0.24218E-01   -0.15229E+00   152   0.276E+00    0.254E+00
DAV:   4    -0.901941875640E+02    0.58701E-01   -0.76787E-01   136   0.110E+00    0.732E-01
DAV:   5    -0.901997258561E+02   -0.55383E-02   -0.68622E-02   136   0.142E+00    0.696E-01
DAV:   6    -0.901963647843E+02    0.33611E-02   -0.37714E-02   144   0.134E+00    0.363E-01
DAV:   7    -0.901951058740E+02    0.12589E-02   -0.12934E-02   136   0.580E-01    0.132E-01
DAV:   8    -0.901952312307E+02   -0.12536E-03   -0.22261E-03   136   0.184E-01    0.453E-02
DAV:   9    -0.901954051905E+02   -0.17396E-03   -0.15870E-04    80   0.685E-02    0.199E-02
DAV:  10    -0.901955432931E+02   -0.13810E-03   -0.51159E-05    72   0.355E-02    0.779E-03
DAV:  11    -0.901956582093E+02   -0.11492E-03   -0.20822E-05    64   0.183E-02    0.443E-03
DAV:  12    -0.901957767871E+02   -0.11858E-03   -0.13656E-05    56   0.119E-02    0.266E-03
DAV:  13    -0.901958640777E+02   -0.87291E-04   -0.13682E-05    72   0.855E-03
  50 F= -.90195864E+02 E0= -.90160616E+02  d E =-.165651E+00
       N       E                     dE             d eps       ncg     rms          rms(c)
DAV:   1    -0.902579654504E+02   -0.62189E-01   -0.76344E+00   112   0.248E+01    0.918E-01
DAV:   2    -0.904055366106E+02   -0.14757E+00   -0.16630E+00   112   0.501E+00    0.238E+00
DAV:   3    -0.903211465537E+02    0.84390E-01   -0.60780E-01   136   0.203E+00    0.591E-01
DAV:   4    -0.903227863571E+02   -0.16398E-02   -0.67075E-02   128   0.794E-01    0.397E-01
DAV:   5    -0.903218094468E+02    0.97691E-03   -0.19181E-02   136   0.820E-01    0.260E-01
DAV:   6    -0.903223077585E+02   -0.49831E-03   -0.77867E-03   136   0.729E-01    0.229E-01
DAV:   7    -0.903217030136E+02    0.60474E-03   -0.38486E-03   128   0.367E-01    0.571E-02
DAV:   8    -0.903218213420E+02   -0.11833E-03   -0.53672E-04    88   0.823E-02    0.274E-02
DAV:   9    -0.903218798350E+02   -0.58493E-04   -0.13558E-04    48   0.384E-02
  51 F= -.90321880E+02 E0= -.90286597E+02  d E =-.126016E+00
       N       E                     dE             d eps       ncg     rms          rms(c)
DAV:   1    -0.902097360113E+02    0.11209E+00   -0.26611E+01   112   0.454E+01    0.166E+00
DAV:   2    -0.905906851020E+02   -0.38095E+00   -0.45237E+00   112   0.922E+00    0.303E+00
DAV:   3    -0.904444860166E+02    0.14620E+00   -0.13739E+00   136   0.324E+00    0.136E+00
DAV:   4    -0.904398451899E+02    0.46408E-02   -0.41643E-01   144   0.121E+00    0.957E-01
DAV:   5    -0.904321810636E+02    0.76641E-02   -0.80000E-02   136   0.144E+00    0.528E-01
DAV:   6    -0.904322085041E+02   -0.27440E-04   -0.27781E-02   136   0.104E+00    0.351E-01
DAV:   7    -0.904315943240E+02    0.61418E-03   -0.11942E-02   144   0.562E-01    0.203E-01
DAV:   8    -0.904314918444E+02    0.10248E-03   -0.56033E-03   128   0.190E-01    0.766E-02
DAV:   9    -0.904317431735E+02   -0.25133E-03   -0.76143E-04    80   0.777E-02    0.285E-02
DAV:  10    -0.904318954055E+02   -0.15223E-03   -0.98015E-05    56   0.306E-02    0.732E-03
DAV:  11    -0.904320632544E+02   -0.16785E-03   -0.26900E-05    64   0.195E-02    0.419E-03
DAV:  12    -0.904322144657E+02   -0.15121E-03   -0.15582E-05    64   0.114E-02    0.335E-03
DAV:  13    -0.904323591471E+02   -0.14468E-03   -0.25408E-05    72   0.101E-02    0.332E-03
DAV:  14    -0.904324296204E+02   -0.70473E-04   -0.82380E-06    48   0.739E-03
  52 F= -.90432430E+02 E0= -.90397345E+02  d E =-.236566E+00
       N       E                     dE             d eps       ncg     rms          rms(c)
DAV:   1    -0.904912733772E+02   -0.58914E-01   -0.12149E+01   112   0.296E+01    0.136E+00
DAV:   2    -0.908381464141E+02   -0.34687E+00   -0.42291E+00   120   0.660E+00    0.324E+00
DAV:   3    -0.905682401903E+02    0.26991E+00   -0.84899E-01   136   0.307E+00    0.581E-01
DAV:   4    -0.905739359131E+02   -0.56957E-02   -0.82315E-02   136   0.119E+00    0.591E-01
DAV:   5    -0.905714672486E+02    0.24687E-02   -0.37487E-02   136   0.105E+00    0.309E-01
DAV:   6    -0.905722234665E+02   -0.75622E-03   -0.14583E-02   136   0.639E-01    0.365E-01
DAV:   7    -0.905710384936E+02    0.11850E-02   -0.12166E-02   128   0.289E-01    0.833E-02
DAV:   8    -0.905712931724E+02   -0.25468E-03   -0.12603E-03   112   0.151E-01    0.922E-02
DAV:   9    -0.905712591806E+02    0.33992E-04   -0.83809E-04    72   0.774E-02
  53 F= -.90571259E+02 E0= -.90535302E+02  d E =-.138830E+00
       N       E                     dE             d eps       ncg     rms          rms(c)
DAV:   1    -0.905626693089E+02    0.86239E-02   -0.61030E+00   112   0.213E+01    0.998E-01
DAV:   2    -0.907603134674E+02   -0.19764E+00   -0.22230E+00   120   0.486E+00    0.279E+00
DAV:   3    -0.905978541130E+02    0.16246E+00   -0.64866E-01   136   0.237E+00    0.355E-01
DAV:   4    -0.906009749167E+02   -0.31208E-02   -0.20969E-02   128   0.646E-01    0.216E-01
DAV:   5    -0.906022846058E+02   -0.13097E-02   -0.11275E-02   136   0.590E-01    0.286E-01
DAV:   6    -0.906014934489E+02    0.79116E-03   -0.72169E-03   144   0.541E-01    0.138E-01
DAV:   7    -0.906015412115E+02   -0.47763E-04   -0.17228E-03   128   0.297E-01    0.484E-02
DAV:   8    -0.906016206850E+02   -0.79474E-04   -0.54277E-04    80   0.848E-02
  54 F= -.90601621E+02 E0= -.90563544E+02  d E =-.169191E+00
       N       E                     dE             d eps       ncg     rms          rms(c)
DAV:   1    -0.906269278517E+02   -0.25387E-01   -0.81644E+00   112   0.268E+01    0.975E-01
DAV:   2    -0.907156275384E+02   -0.88700E-01   -0.10828E+00   120   0.533E+00    0.157E+00
DAV:   3    -0.906874698316E+02    0.28158E-01   -0.24812E-01   144   0.273E+00    0.568E-01
DAV:   4    -0.906859391401E+02    0.15307E-02   -0.27066E-02   136   0.951E-01    0.373E-01
DAV:   5    -0.906894120502E+02   -0.34729E-02   -0.64571E-02   144   0.549E-01    0.651E-01
DAV:   6    -0.906854122269E+02    0.39998E-02   -0.43389E-02   144   0.281E-01    0.149E-01
DAV:   7    -0.906858599871E+02   -0.44776E-03   -0.25494E-03   128   0.224E-01    0.641E-02
DAV:   8    -0.906859926915E+02   -0.13270E-03   -0.33488E-04    88   0.969E-02    0.219E-02
DAV:   9    -0.906861416040E+02   -0.14891E-03   -0.63592E-05    72   0.430E-02    0.884E-03
DAV:  10    -0.906862404995E+02   -0.98896E-04   -0.20662E-05    72   0.197E-02
  55 F= -.90686240E+02 E0= -.90645192E+02  d E =-.846198E-01
       N       E                     dE             d eps       ncg     rms          rms(c)
DAV:   1    -0.906556994506E+02    0.30442E-01   -0.78931E+00   104   0.258E+01    0.982E-01
DAV:   2    -0.907484915015E+02   -0.92792E-01   -0.10886E+00   104   0.575E+00    0.177E+00
DAV:   3    -0.907142357678E+02    0.34256E-01   -0.31191E-01   144   0.296E+00    0.620E-01
DAV:   4    -0.907188447782E+02   -0.46090E-02   -0.76307E-02   136   0.100E+00    0.831E-01
DAV:   5    -0.907117218314E+02    0.71229E-02   -0.69176E-02   144   0.541E-01    0.300E-01
DAV:   6    -0.907121431721E+02   -0.42134E-03   -0.10228E-02   136   0.251E-01    0.124E-01
DAV:   7    -0.907122570685E+02   -0.11390E-03   -0.17017E-03   128   0.205E-01    0.674E-02
DAV:   8    -0.907123284886E+02   -0.71420E-04   -0.39305E-04    88   0.103E-01
  56 F= -.90712328E+02 E0= -.90668582E+02  d E =-.110708E+00
       N       E                     dE             d eps       ncg     rms          rms(c)
DAV:   1    -0.906770991377E+02    0.35158E-01   -0.11459E+01   112   0.321E+01    0.100E+00
DAV:   2    -0.908304261518E+02   -0.15333E+00   -0.16042E+00    96   0.606E+00    0.175E+00
DAV:   3    -0.908023926160E+02    0.28034E-01   -0.32139E-01   144   0.239E+00    0.891E-01
DAV:   4    -0.908032469105E+02   -0.85429E-03   -0.95850E-02   152   0.111E+00    0.829E-01
DAV:   5    -0.907966560292E+02    0.65909E-02   -0.50777E-02   136   0.858E-01    0.334E-01
[...]
DAV:   2    -0.939667560459E+02   -0.33879E-01   -0.53700E-01   128   0.365E+00    0.883E-01
DAV:   3    -0.939611631601E+02    0.55929E-02   -0.11468E-01   136   0.228E+00    0.634E-01
DAV:   4    -0.939582521812E+02    0.29110E-02   -0.39586E-02   128   0.101E+00    0.359E-01
DAV:   5    -0.939576010315E+02    0.65115E-03   -0.16470E-02   136   0.827E-01    0.222E-01
DAV:   6    -0.939569757028E+02    0.62533E-03   -0.34453E-03   136   0.342E-01    0.505E-02
DAV:   7    -0.939570871489E+02   -0.11145E-03   -0.30893E-04   104   0.737E-02    0.191E-02
DAV:   8    -0.939571356428E+02   -0.48494E-04   -0.32700E-05    72   0.294E-02
 203 F= -.93957136E+02 E0= -.93955524E+02  d E =-.134486E+00
       N       E                     dE             d eps       ncg     rms          rms(c)
DAV:   1    -0.939978189391E+02   -0.40732E-01   -0.22339E+00    96   0.885E+00    0.339E-01
DAV:   2    -0.940020706209E+02   -0.42517E-02   -0.73016E-02   120   0.134E+00    0.237E-01
DAV:   3    -0.940027771472E+02   -0.70653E-03   -0.12794E-02   152   0.675E-01    0.298E-01
DAV:   4    -0.940017196385E+02    0.10575E-02   -0.81808E-03   136   0.611E-01    0.904E-02
DAV:   5    -0.940018251533E+02   -0.10551E-03   -0.76706E-04   112   0.151E-01    0.406E-02
DAV:   6    -0.940018500547E+02   -0.24901E-04   -0.29261E-04    96   0.102E-01
 204 F= -.94001850E+02 E0= -.94000449E+02  d E =-.447144E-01
       N       E                     dE             d eps       ncg     rms          rms(c)
DAV:   1    -0.940456497170E+02   -0.43825E-01   -0.20109E+01    96   0.265E+01    0.102E+00
DAV:   2    -0.940854114040E+02   -0.39762E-01   -0.67218E-01   128   0.405E+00    0.725E-01
DAV:   3    -0.940909214501E+02   -0.55100E-02   -0.12145E-01   144   0.188E+00    0.898E-01
DAV:   4    -0.940803498170E+02    0.10572E-01   -0.76887E-02   136   0.178E+00    0.286E-01
DAV:   5    -0.940810346714E+02   -0.68485E-03   -0.97032E-03   136   0.554E-01    0.183E-01
DAV:   6    -0.940806919199E+02    0.34275E-03   -0.39900E-03   136   0.352E-01    0.859E-02
DAV:   7    -0.940807217132E+02   -0.29793E-04   -0.46293E-04    96   0.120E-01
 205 F= -.94080722E+02 E0= -.94079894E+02  d E =-.123586E+00
       N       E                     dE             d eps       ncg     rms          rms(c)
DAV:   1    -0.940814859818E+02   -0.79406E-03   -0.32763E+00    96   0.107E+01    0.408E-01
DAV:   2    -0.940875634814E+02   -0.60775E-02   -0.10807E-01   128   0.163E+00    0.295E-01
DAV:   3    -0.940885784713E+02   -0.10150E-02   -0.20384E-02   144   0.924E-01    0.370E-01
DAV:   4    -0.940867984857E+02    0.17800E-02   -0.12291E-02   136   0.755E-01    0.109E-01
DAV:   5    -0.940869919562E+02   -0.19347E-03   -0.13185E-03   128   0.187E-01    0.600E-02
DAV:   6    -0.940870050094E+02   -0.13053E-04   -0.51841E-04   104   0.129E-01
 206 F= -.94087005E+02 E0= -.94086341E+02  d E =-.129869E+00
       N       E                     dE             d eps       ncg     rms          rms(c)
DAV:   1    -0.941410493890E+02   -0.54057E-01   -0.82205E+00    96   0.198E+01    0.655E-01
DAV:   2    -0.941652616641E+02   -0.24212E-01   -0.35398E-01   112   0.314E+00    0.393E-01
DAV:   3    -0.941659504977E+02   -0.68883E-03   -0.27539E-02   152   0.823E-01    0.287E-01
DAV:   4    -0.941670066172E+02   -0.10561E-02   -0.19361E-02   136   0.808E-01    0.358E-01
DAV:   5    -0.941654987233E+02    0.15079E-02   -0.79937E-03   144   0.471E-01    0.631E-02
DAV:   6    -0.941657503178E+02   -0.25159E-03   -0.94389E-04   128   0.153E-01    0.570E-02
DAV:   7    -0.941657317759E+02    0.18542E-04   -0.29541E-04    96   0.100E-01
 207 F= -.94165732E+02 E0= -.94165291E+02  d E =-.787268E-01
       N       E                     dE             d eps       ncg     rms          rms(c)
DAV:   1    -0.941669626961E+02   -0.12124E-02   -0.11702E+01    96   0.236E+01    0.773E-01
DAV:   2    -0.942020482924E+02   -0.35086E-01   -0.50573E-01   112   0.376E+00    0.474E-01
DAV:   3    -0.942043550638E+02   -0.23068E-02   -0.46528E-02   152   0.121E+00    0.475E-01
DAV:   4    -0.942029254823E+02    0.14296E-02   -0.30947E-02   136   0.124E+00    0.331E-01
DAV:   5    -0.942020698951E+02    0.85559E-03   -0.65824E-03   144   0.458E-01    0.651E-02
DAV:   6    -0.942023159783E+02   -0.24608E-03   -0.66788E-04   120   0.128E-01    0.434E-02
DAV:   7    -0.942023353671E+02   -0.19389E-04   -0.18808E-04    88   0.876E-02
 208 F= -.94202335E+02 E0= -.94202107E+02  d E =-.115330E+00
       N       E                     dE             d eps       ncg     rms          rms(c)
DAV:   1    -0.942352825333E+02   -0.32967E-01   -0.35287E+00   112   0.167E+01    0.471E-01
DAV:   2    -0.942637002173E+02   -0.28418E-01   -0.34826E-01   112   0.303E+00    0.270E-01
DAV:   3    -0.942638456504E+02   -0.14543E-03   -0.17114E-02   152   0.644E-01    0.151E-01
DAV:   4    -0.942645278273E+02   -0.68218E-03   -0.39200E-03   136   0.346E-01    0.200E-01
DAV:   5    -0.942640832612E+02    0.44457E-03   -0.31728E-03   144   0.356E-01    0.582E-02
DAV:   6    -0.942642086169E+02   -0.12536E-03   -0.29845E-04    88   0.959E-02    0.208E-02
DAV:   7    -0.942642365823E+02   -0.27965E-04   -0.70283E-05    72   0.604E-02
 209 F= -.94264237E+02 E0= -.94264111E+02  d E =-.619012E-01
       N       E                     dE             d eps       ncg     rms          rms(c)
DAV:   1    -0.941952379956E+02    0.68971E-01   -0.14696E+01   112   0.340E+01    0.965E-01
DAV:   2    -0.943124146287E+02   -0.11718E+00   -0.14227E+00    96   0.616E+00    0.549E-01
DAV:   3    -0.943126643509E+02   -0.24972E-03   -0.70389E-02   152   0.129E+00    0.317E-01
DAV:   4    -0.943153166236E+02   -0.26523E-02   -0.19089E-02   136   0.821E-01    0.426E-01
DAV:   5    -0.943129907741E+02    0.23258E-02   -0.15126E-02   144   0.911E-01    0.131E-01
DAV:   6    -0.943133300098E+02   -0.33924E-03   -0.21786E-03   128   0.253E-01    0.829E-02
DAV:   7    -0.943132609928E+02    0.69017E-04   -0.54392E-04   104   0.136E-01
 210 F= -.94313261E+02 E0= -.94313231E+02  d E =-.110926E+00
       N       E                     dE             d eps       ncg     rms          rms(c)
DAV:   1    -0.943405506021E+02   -0.27221E-01   -0.31637E+00   112   0.149E+01    0.430E-01
DAV:   2    -0.943638040244E+02   -0.23253E-01   -0.27576E-01   112   0.267E+00    0.397E-01
DAV:   3    -0.943636962493E+02    0.10778E-03   -0.25820E-02   144   0.102E+00    0.321E-01
DAV:   4    -0.943625197178E+02    0.11765E-02   -0.72951E-03   136   0.553E-01    0.120E-01
DAV:   5    -0.943628775677E+02   -0.35785E-03   -0.21261E-03   136   0.262E-01    0.909E-02
DAV:   6    -0.943628115421E+02    0.66026E-04   -0.77342E-04   112   0.160E-01
 211 F= -.94362812E+02 E0= -.94362795E+02  d E =-.495505E-01
       N       E                     dE             d eps       ncg     rms          rms(c)
DAV:   1    -0.943272195686E+02    0.35658E-01   -0.96704E+00   112   0.260E+01    0.752E-01
DAV:   2    -0.943980863652E+02   -0.70867E-01   -0.83967E-01   112   0.464E+00    0.655E-01
DAV:   3    -0.943990282136E+02   -0.94185E-03   -0.80038E-02   152   0.164E+00    0.574E-01
DAV:   4    -0.943948013349E+02    0.42269E-02   -0.22487E-02   136   0.104E+00    0.216E-01
DAV:   5    -0.943955754926E+02   -0.77416E-03   -0.67190E-03   136   0.489E-01    0.161E-01
DAV:   6    -0.943953138624E+02    0.26163E-03   -0.25509E-03   136   0.285E-01    0.479E-02
DAV:   7    -0.943954210610E+02   -0.10720E-03   -0.20761E-04    88   0.798E-02    0.210E-02
DAV:   8    -0.943954850306E+02   -0.63970E-04   -0.53203E-05    72   0.403E-02
 212 F= -.94395485E+02 E0= -.94395480E+02  d E =-.822240E-01
       N       E                     dE             d eps       ncg     rms          rms(c)
DAV:   1    -0.944190197274E+02   -0.23599E-01   -0.38744E+00   112   0.168E+01    0.535E-01
DAV:   2    -0.944512830476E+02   -0.32263E-01   -0.37913E-01   128   0.330E+00    0.722E-01
DAV:   3    -0.944457939748E+02    0.54891E-02   -0.49665E-02   152   0.136E+00    0.304E-01
DAV:   4    -0.944449608089E+02    0.83317E-03   -0.78834E-03   128   0.501E-01    0.140E-01
DAV:   5    -0.944454002800E+02   -0.43947E-03   -0.35401E-03   136   0.348E-01    0.129E-01
DAV:   6    -0.944452339522E+02    0.16633E-03   -0.13368E-03   128   0.209E-01    0.351E-02
DAV:   7    -0.944453150169E+02   -0.81065E-04   -0.89207E-05    72   0.490E-02
 213 F= -.94445315E+02 E0= -.94445311E+02  d E =-.498300E-01
       N       E                     dE             d eps       ncg     rms          rms(c)
DAV:   1    -0.944377728076E+02    0.74611E-02   -0.31905E+00   112   0.152E+01    0.483E-01
DAV:   2    -0.944640304086E+02   -0.26258E-01   -0.30989E-01   112   0.299E+00    0.640E-01
DAV:   3    -0.944598773045E+02    0.41531E-02   -0.41459E-02   144   0.124E+00    0.276E-01
DAV:   4    -0.944592227519E+02    0.65455E-03   -0.65302E-03   128   0.462E-01    0.128E-01
DAV:   5    -0.944596051762E+02   -0.38242E-03   -0.29346E-03   136   0.324E-01    0.119E-01
DAV:   6    -0.944594639016E+02    0.14127E-03   -0.10904E-03   120   0.192E-01    0.295E-02
DAV:   7    -0.944595293491E+02   -0.65447E-04   -0.83600E-05    72   0.472E-02
 214 F= -.94459529E+02 E0= -.94459526E+02  d E =-.640443E-01
       N       E                     dE             d eps       ncg     rms          rms(c)
DAV:   1    -0.944711965777E+02   -0.11733E-01   -0.28458E+00   112   0.147E+01    0.475E-01
DAV:   2    -0.944984314048E+02   -0.27235E-01   -0.31655E-01   104   0.282E+00    0.579E-01
DAV:   3    -0.944954300304E+02    0.30014E-02   -0.35966E-02   136   0.128E+00    0.275E-01
DAV:   4    -0.944948510053E+02    0.57903E-03   -0.67615E-03   136   0.474E-01    0.140E-01
DAV:   5    -0.944951581938E+02   -0.30719E-03   -0.21331E-03   128   0.264E-01    0.855E-02
DAV:   6    -0.944951453514E+02    0.12842E-04   -0.95189E-04   120   0.180E-01
 215 F= -.94495145E+02 E0= -.94495143E+02  d E =-.356160E-01
       N       E                     dE             d eps       ncg     rms          rms(c)
DAV:   1    -0.944906377428E+02    0.45205E-02   -0.12912E+00   112   0.990E+00    0.321E-01
DAV:   2    -0.945029804310E+02   -0.12343E-01   -0.14449E-01   104   0.191E+00    0.380E-01
DAV:   3    -0.945017466370E+02    0.12338E-02   -0.15993E-02   136   0.773E-01    0.189E-01
DAV:   4    -0.945015406963E+02    0.20594E-03   -0.31930E-03   136   0.328E-01    0.980E-02
DAV:   5    -0.945017428587E+02   -0.20216E-03   -0.10809E-03   128   0.186E-01    0.633E-02
DAV:   6    -0.945017400806E+02    0.27780E-05   -0.47452E-04   104   0.131E-01
 216 F= -.94501740E+02 E0= -.94501738E+02  d E =-.422107E-01
       N       E                     dE             d eps       ncg     rms          rms(c)
DAV:   1    -0.945050160427E+02   -0.32732E-02   -0.21357E+00   120   0.134E+01    0.433E-01
DAV:   2    -0.945255874016E+02   -0.20571E-01   -0.24302E-01    96   0.241E+00    0.459E-01
DAV:   3    -0.945243962445E+02    0.11912E-02   -0.25082E-02   152   0.104E+00    0.267E-01
DAV:   4    -0.945238922327E+02    0.50401E-03   -0.66348E-03   128   0.475E-01    0.144E-01
DAV:   5    -0.945241609069E+02   -0.26867E-03   -0.22402E-03   136   0.262E-01    0.931E-02
DAV:   6    -0.945241399076E+02    0.20999E-04   -0.95301E-04   120   0.183E-01
 217 F= -.94524140E+02 E0= -.94524138E+02  d E =-.223998E-01
       N       E                     dE             d eps       ncg     rms          rms(c)
DAV:   1    -0.945219811733E+02    0.21797E-02   -0.52576E-01   120   0.669E+00    0.216E-01
DAV:   2    -0.945270380963E+02   -0.50569E-02   -0.60602E-02    96   0.122E+00    0.225E-01
DAV:   3    -0.945268097197E+02    0.22838E-03   -0.61932E-03   152   0.492E-01    0.135E-01
DAV:   4    -0.945267449287E+02    0.64791E-04   -0.16725E-03   128   0.250E-01    0.733E-02
DAV:   5    -0.945268442307E+02   -0.99302E-04   -0.57591E-04   112   0.137E-01
 218 F= -.94526844E+02 E0= -.94526843E+02  d E =-.251042E-01
       N       E                     dE             d eps       ncg     rms          rms(c)
DAV:   1    -0.945325234838E+02   -0.57786E-02   -0.10391E+00   112   0.882E+00    0.313E-01
DAV:   2    -0.945420076614E+02   -0.94842E-02   -0.11010E-01   112   0.179E+00    0.473E-01
DAV:   3    -0.945392990690E+02    0.27086E-02   -0.18164E-02   136   0.916E-01    0.148E-01
DAV:   4    -0.945393448920E+02   -0.45823E-04   -0.21796E-03   128   0.291E-01    0.772E-02
DAV:   5    -0.945395149671E+02   -0.17008E-03   -0.96777E-04   128   0.186E-01    0.633E-02
DAV:   6    -0.945394761871E+02    0.38780E-04   -0.32553E-04    96   0.114E-01
 219 F= -.94539476E+02 E0= -.94539475E+02  d E =-.126320E-01
       N       E                     dE             d eps       ncg     rms          rms(c)
DAV:   1    -0.945395324931E+02   -0.17526E-04   -0.13662E-01   104   0.320E+00    0.115E-01
DAV:   2    -0.945407865517E+02   -0.12541E-02   -0.14714E-02   120   0.663E-01    0.172E-01
DAV:   3    -0.945404313478E+02    0.35520E-03   -0.24383E-03   128   0.300E-01    0.544E-02
DAV:   4    -0.945404612280E+02   -0.29880E-04   -0.25871E-04    88   0.111E-01
 220 F= -.94540461E+02 E0= -.94540460E+02  d E =-.136170E-01
       N       E                     dE             d eps       ncg     rms          rms(c)
DAV:   1    -0.945436182530E+02   -0.31869E-02   -0.84805E-01   112   0.772E+00    0.256E-01
DAV:   2    -0.945497439540E+02   -0.61257E-02   -0.75208E-02   112   0.152E+00    0.337E-01
DAV:   3    -0.945486263534E+02    0.11176E-02   -0.11507E-02   136   0.628E-01    0.145E-01
DAV:   4    -0.945486026947E+02    0.23659E-04   -0.21698E-03   136   0.313E-01    0.993E-02
DAV:   5    -0.945486146513E+02   -0.11957E-04   -0.12183E-03   128   0.205E-01    0.575E-02
DAV:   6    -0.945486167163E+02   -0.20650E-05   -0.24846E-04    88   0.101E-01
 221 F= -.94548617E+02 E0= -.94548615E+02  d E =-.815549E-02
       N       E                     dE             d eps       ncg     rms          rms(c)
DAV:   1    -0.945486513475E+02   -0.36696E-04   -0.84499E-03   112   0.777E-01    0.274E-02
DAV:   2    -0.945487252535E+02   -0.73906E-04   -0.79372E-04   120   0.153E-01
 222 F= -.94548725E+02 E0= -.94548723E+02  d E =-.826403E-02
       N       E                     dE             d eps       ncg     rms          rms(c)
DAV:   1    -0.945522345906E+02   -0.35832E-02   -0.54679E-01   104   0.572E+00    0.187E-01
DAV:   2    -0.945548354848E+02   -0.26009E-02   -0.35846E-02   112   0.101E+00    0.155E-01
DAV:   3    -0.945548211253E+02    0.14360E-04   -0.37732E-03   136   0.358E-01    0.121E-01
DAV:   4    -0.945547547218E+02    0.66403E-04   -0.15722E-03   136   0.264E-01    0.815E-02
DAV:   5    -0.945547339616E+02    0.20760E-04   -0.72549E-04   112   0.166E-01
 223 F= -.94554734E+02 E0= -.94554731E+02  d E =-.600871E-02
       N       E                     dE             d eps       ncg     rms          rms(c)
DAV:   1    -0.945548360959E+02   -0.81374E-04   -0.11986E-01   104   0.269E+00    0.898E-02
DAV:   2    -0.945554011662E+02   -0.56507E-03   -0.78550E-03   112   0.474E-01    0.720E-02
DAV:   3    -0.945553997053E+02    0.14609E-05   -0.73685E-04   112   0.164E-01
 224 F= -.94555400E+02 E0= -.94555397E+02  d E =-.667445E-02
       N       E                     dE             d eps       ncg     rms          rms(c)
DAV:   1    -0.945576579855E+02   -0.22568E-02   -0.32685E-01    96   0.427E+00    0.144E-01
DAV:   2    -0.945591698788E+02   -0.15119E-02   -0.20972E-02   112   0.780E-01    0.121E-01
DAV:   3    -0.945591382965E+02    0.31582E-04   -0.21965E-03   144   0.325E-01    0.901E-02
DAV:   4    -0.945591264945E+02    0.11802E-04   -0.88603E-04   112   0.183E-01
 225 F= -.94559126E+02 E0= -.94559124E+02  d E =-.372679E-02
       N       E                     dE             d eps       ncg     rms          rms(c)
DAV:   1    -0.945588530065E+02    0.28529E-03   -0.20984E-01    96   0.343E+00    0.115E-01
DAV:   2    -0.945597841119E+02   -0.93111E-03   -0.12840E-02   112   0.597E-01    0.738E-02
DAV:   3    -0.945598580151E+02   -0.73903E-04   -0.11514E-03   136   0.195E-01    0.730E-02
DAV:   4    -0.945598302787E+02    0.27736E-04   -0.55762E-04    96   0.148E-01
 226 F= -.94559830E+02 E0= -.94559827E+02  d E =-.443057E-02
       N       E                     dE             d eps       ncg     rms          rms(c)
DAV:   1    -0.945616272382E+02   -0.17692E-02   -0.20082E-01    96   0.300E+00    0.108E-01
DAV:   2    -0.945621184928E+02   -0.49125E-03   -0.88202E-03   136   0.480E-01    0.707E-02
DAV:   3    -0.945621222588E+02   -0.37660E-05   -0.79896E-04   136   0.162E-01
 227 F= -.94562122E+02 E0= -.94562119E+02  d E =-.229198E-02
       N       E                     dE             d eps       ncg     rms          rms(c)
DAV:   1    -0.945622769684E+02   -0.15848E-03   -0.10358E-01    96   0.215E+00    0.939E-02
DAV:   2    -0.945626466952E+02   -0.36973E-03   -0.54691E-03   144   0.387E-01    0.113E-01
DAV:   3    -0.945624978874E+02    0.14881E-03   -0.11741E-03   112   0.203E-01    0.576E-02
DAV:   4    -0.945625086677E+02   -0.10780E-04   -0.34132E-04    88   0.122E-01
 228 F= -.94562509E+02 E0= -.94562505E+02  d E =-.267839E-02
       N       E                     dE             d eps       ncg     rms          rms(c)
DAV:   1    -0.945633792913E+02   -0.88140E-03   -0.12352E-01   104   0.300E+00    0.887E-02
DAV:   2    -0.945642647442E+02   -0.88545E-03   -0.10962E-02   112   0.557E-01    0.804E-02
DAV:   3    -0.945642580830E+02    0.66612E-05   -0.87558E-04   136   0.204E-01
 229 F= -.94564258E+02 E0= -.94564255E+02  d E =-.174942E-02
       N       E                     dE             d eps       ncg     rms          rms(c)
DAV:   1    -0.945634377247E+02    0.82702E-03   -0.22975E-01   104   0.408E+00    0.137E-01
DAV:   2    -0.945650110736E+02   -0.15733E-02   -0.20729E-02   112   0.777E-01    0.124E-01
DAV:   3    -0.945649050254E+02    0.10605E-03   -0.16834E-03   136   0.246E-01    0.695E-02
DAV:   4    -0.945649399145E+02   -0.34889E-04   -0.52277E-04    96   0.137E-01
 230 F= -.94564940E+02 E0= -.94564936E+02  d E =-.243125E-02
       N       E                     dE             d eps       ncg     rms          rms(c)
DAV:   1    -0.945649951380E+02   -0.90113E-04   -0.13933E-01   112   0.342E+00    0.108E-01
DAV:   2    -0.945663142630E+02   -0.13191E-02   -0.15164E-02    96   0.668E-01    0.137E-01
DAV:   3    -0.945660927197E+02    0.22154E-03   -0.19819E-03   136   0.283E-01    0.632E-02
DAV:   4    -0.945660803216E+02    0.12398E-04   -0.24548E-04    80   0.112E-01
 231 F= -.94566080E+02 E0= -.94566078E+02  d E =-.114041E-02
       N       E                     dE             d eps       ncg     rms          rms(c)
DAV:   1    -0.945658017325E+02    0.29099E-03   -0.53751E-02   112   0.214E+00    0.607E-02
DAV:   2    -0.945662523208E+02   -0.45059E-03   -0.54046E-03    96   0.374E-01    0.421E-02
DAV:   3    -0.945662605236E+02   -0.82029E-05   -0.30224E-04   104   0.108E-01
 232 F= -.94566261E+02 E0= -.94566258E+02  d E =-.132061E-02
       N       E                     dE             d eps       ncg     rms          rms(c)
DAV:   1    -0.945661100686E+02    0.14225E-03   -0.12248E-01   104   0.321E+00    0.106E-01
DAV:   2    -0.945673090949E+02   -0.11990E-02   -0.13438E-02   112   0.586E-01    0.130E-01
DAV:   3    -0.945671208092E+02    0.18829E-03   -0.14681E-03   112   0.243E-01    0.623E-02
DAV:   4    -0.945671178063E+02    0.30029E-05   -0.21686E-04    88   0.103E-01
 233 F= -.94567118E+02 E0= -.94567116E+02  d E =-.857283E-03
       N       E                     dE             d eps       ncg     rms          rms(c)
DAV:   1    -0.945670942116E+02    0.26598E-04   -0.99228E-03   104   0.913E-01    0.342E-02
DAV:   2    -0.945672202449E+02   -0.12603E-03   -0.12980E-03   128   0.184E-01    0.545E-02
DAV:   3    -0.945671760439E+02    0.44201E-04   -0.20177E-04    88   0.959E-02
 234 F= -.94567176E+02 E0= -.94567174E+02  d E =-.915520E-03
