unknown system                          
           1
    20.738775    0.000000    0.000000
     0.000000   20.180822    0.000000
     0.000000    0.000000   18.777092
   Ti   Al   B 
     2     4    12
Direct configuration=     1
   0.50027006  0.35872906  0.41867299
   0.54846006  0.52232756  0.45425160
   0.67378759  0.50962179  0.54021364
   0.67156067  0.41703055  0.33518054
   0.46498896  0.40187581  0.47405941
   0.61060754  0.54254405  0.52808316
   0.48845114  0.46393841  0.57963849
   0.45356136  0.49682682  0.45486844
   0.49867266  0.43631706  0.51819659
   0.32623454  0.49280655  0.50289220
   0.49244139  0.44251885  0.42925576
   0.50613577  0.49435053  0.61180719
   0.52262828  0.50801145  0.35293708
   0.37536885  0.58000993  0.60510212
   0.61552457  0.45166653  0.36147137
   0.50892882  0.57178569  0.48476245
   0.41659531  0.56457859  0.57804742
   0.48521843  0.66348375  0.61193341
Direct configuration=     2
   0.53640429  0.30905126  0.37110031
   0.57371877  0.48762738  0.41601647
   0.74189208  0.47271837  0.55135430
   0.71426743  0.39066242  0.31571659
   0.34515630  0.33263395  0.51815822
   0.55342339  0.58633851  0.53543752
   0.40904721  0.34975637  0.47474578
   0.44289562  0.51120862  0.46145220
   0.55349517  0.47196693  0.54974638
   0.33088553  0.49529537  0.50425865
   0.52967605  0.50085074  0.36974859
   0.57940185  0.62080664  0.73681779
   0.52566228  0.50227442  0.35352056
   0.28408907  0.61487376  0.66259467
   0.56638960  0.48015823  0.38287793
   0.47796551  0.60429838  0.50752753
   0.51311124  0.52898579  0.51998933
   0.48195463  0.65891582  0.61031105
Direct configuration=     3
   0.51480103  0.33875170  0.39954218
   0.55861756  0.50837328  0.43887578
   0.70117504  0.49478150  0.54469373
   0.68873471  0.40642690  0.32735333
   0.41679962  0.37403098  0.49179324
   0.58761159  0.56015549  0.53104063
   0.45651975  0.41802140  0.53745708
   0.44927225  0.50261029  0.45751602
   0.52071891  0.45065325  0.53088398
   0.32810488  0.49380740  0.50344170
   0.50741489  0.46597636  0.40532563
   0.53559889  0.54520341  0.66207878
   0.52384837  0.50570437  0.35317172
   0.33866173  0.59403002  0.62822209
   0.59576550  0.46312414  0.37007977
   0.49647728  0.58486030  0.49391717
   0.45540809  0.55026535  0.55470002
   0.48390593  0.66164681  0.61128099
Direct configuration=     4
   0.51384093  0.34007165  0.40080620
   0.55794643  0.50929527  0.43989170
   0.69936548  0.49576204  0.54439772
   0.68759998  0.40712751  0.32787049
   0.41998361  0.37587076  0.49062153
   0.58913099  0.55899186  0.53084522
   0.45862954  0.42105525  0.54024411
   0.44955565  0.50222817  0.45734109
   0.51926226  0.44970602  0.53004569
   0.32798130  0.49374127  0.50340540
   0.50642555  0.46442646  0.40690675
   0.53365218  0.54184344  0.65875721
   0.52376775  0.50585680  0.35315622
   0.34108706  0.59310368  0.62669450
   0.59707103  0.46236711  0.36951099
   0.49729998  0.58399643  0.49331229
   0.45284363  0.55121106  0.55624264
   0.48399265  0.66176818  0.61132410
Direct configuration=     5
   0.51189836  0.34274233  0.40336371
   0.55658852  0.51116075  0.44194722
   0.69570418  0.49774597  0.54379880
   0.68530406  0.40854506  0.32891688
   0.42642581  0.37959320  0.48825077
   0.59220521  0.55663747  0.53044985
   0.46289830  0.42719368  0.54588315
   0.45012904  0.50145500  0.45698714
   0.51631500  0.44778948  0.52834958
   0.32773126  0.49360747  0.50333194
   0.50442381  0.46129054  0.41010586
   0.52971340  0.53504515  0.65203664
   0.52360464  0.50616522  0.35312485
   0.34599426  0.59122940  0.62360370
   0.59971253  0.46083539  0.36836018
   0.49896457  0.58224854  0.49208844
   0.44765493  0.55312453  0.55936384
   0.48416811  0.66201375  0.61141132
Direct configuration=     6
   0.51573479  0.34494790  0.40072049
   0.57445429  0.52502393  0.44931132
   0.69987306  0.49465948  0.54382611
   0.68615913  0.40797548  0.32873869
   0.41080977  0.36686624  0.47554687
   0.59108185  0.56507520  0.54321128
   0.43289989  0.42233435  0.57008652
   0.44823238  0.50260651  0.46544408
   0.55206844  0.46349264  0.51736157
   0.33227910  0.49420454  0.50420818
   0.48587314  0.43947571  0.40536209
   0.53144720  0.54091593  0.65302573
   0.52828945  0.50904654  0.33542653
   0.34546878  0.59102534  0.62333842
   0.59695261  0.45834701  0.36389047
   0.49333599  0.58217013  0.49686235
   0.45083867  0.55301909  0.55553685
   0.48363745  0.65723693  0.60947630
Direct configuration=     7
   0.51365900  0.34375453  0.40215066
   0.56478763  0.51752296  0.44532681
   0.69761740  0.49632949  0.54381133
   0.68569647  0.40828367  0.32883510
   0.41925917  0.37375244  0.48242059
   0.59168967  0.56050978  0.53630643
   0.44913118  0.42496359  0.55699077
   0.44925861  0.50198346  0.46086828
   0.53272327  0.45499611  0.52330687
   0.32981840  0.49388148  0.50373407
   0.49591038  0.45127909  0.40792881
   0.53050909  0.53773942  0.65249056
   0.52575464  0.50748754  0.34500259
   0.34575310  0.59113575  0.62348196
   0.59844592  0.45969340  0.36630890
   0.49638145  0.58221256  0.49427932
   0.44911604  0.55307614  0.55760753
   0.48392458  0.65982153  0.61052328
Direct configuration=     8
   0.51581256  0.34780520  0.40154911
   0.56831215  0.51929850  0.43452420
   0.69824753  0.49504212  0.54296859
   0.68478540  0.40873289  0.32956389
   0.41453135  0.37037303  0.47524272
   0.59238816  0.56821214  0.55220332
   0.45201566  0.43213326  0.56301368
   0.45119978  0.50269688  0.46678167
   0.53012799  0.45481558  0.52468610
   0.33414253  0.49414504  0.50478525
   0.49086929  0.44585444  0.40724495
   0.52927038  0.53955972  0.64890858
   0.52840235  0.50416383  0.34298171
   0.34840399  0.58968768  0.62122668
   0.59576402  0.45707604  0.36237545
   0.49422068  0.58146697  0.49686407
   0.44712546  0.55270300  0.55777446
   0.48381670  0.65465662  0.60867943
Direct configuration=     9
   0.51650023  0.34909864  0.40135702
   0.56943758  0.51986546  0.43107476
   0.69844874  0.49463104  0.54269949
   0.68449448  0.40887634  0.32979661
   0.41302169  0.36929394  0.47295072
   0.59261120  0.57067162  0.55727944
   0.45293672  0.43442264  0.56493688
   0.45181962  0.50292468  0.46866991
   0.52929928  0.45475794  0.52512651
   0.33552330  0.49422920  0.50512090
   0.48925959  0.44412226  0.40702658
   0.52887484  0.54014097  0.64776480
   0.52924780  0.50310252  0.34233641
   0.34925046  0.58922529  0.62050654
   0.59490765  0.45624027  0.36111944
   0.49353072  0.58122890  0.49768942
   0.44648984  0.55258386  0.55782776
   0.48378226  0.65300738  0.60809067
Direct configuration=    10
   0.51787555  0.35168552  0.40097285
   0.57168844  0.52099937  0.42417588
   0.69885117  0.49380889  0.54216128
   0.68391263  0.40916323  0.33026204
   0.41000237  0.36713575  0.46836672
   0.59305728  0.57559058  0.56743168
   0.45477884  0.43900140  0.56878329
   0.45305931  0.50338029  0.47244639
   0.52764185  0.45464265  0.52600734
   0.33828482  0.49439752  0.50579222
   0.48604020  0.44065791  0.40658984
   0.52808377  0.54130347  0.64547724
   0.53093871  0.50097989  0.34104581
   0.35094339  0.58830051  0.61906625
   0.59319491  0.45456875  0.35860742
   0.49215079  0.58075275  0.49934012
   0.44521859  0.55234556  0.55793437
   0.48371337  0.64970891  0.60691313
Direct configuration=    11
   0.52265505  0.35438134  0.39980156
   0.57428238  0.52780523  0.42775328
   0.69839123  0.49266386  0.54106525
   0.68261442  0.40975415  0.33135475
   0.40663556  0.36760902  0.46470643
   0.59271281  0.58082902  0.57758123
   0.45800899  0.44621518  0.56953345
   0.45650804  0.50256393  0.47831657
   0.52354271  0.45543277  0.52677000
   0.34475257  0.49441534  0.50753919
   0.48056484  0.44293132  0.40773221
   0.52446475  0.54393681  0.64047581
   0.52945825  0.49476465  0.33550417
   0.35542801  0.58600893  0.61540550
   0.59202003  0.44690962  0.35166386
   0.49285512  0.58013848  0.50066320
   0.44070957  0.55041456  0.56118912
   0.48383165  0.64164875  0.60431829
Direct configuration=    12
   0.52610772  0.35632877  0.39895543
   0.57615622  0.53272174  0.43033756
   0.69805898  0.49183671  0.54027349
   0.68167660  0.41018102  0.33214411
   0.40420340  0.36795091  0.46206226
   0.59246396  0.58461323  0.58491319
   0.46034243  0.45142635  0.57007536
   0.45899938  0.50197419  0.48255715
   0.52058153  0.45600354  0.52732094
   0.34942483  0.49442822  0.50880119
   0.47660949  0.44457362  0.40855745
   0.52185039  0.54583911  0.63686281
   0.52838877  0.49027480  0.33150094
   0.35866767  0.58435351  0.61276099
   0.59117131  0.44137672  0.34664789
   0.49336393  0.57969473  0.50161898
   0.43745229  0.54901961  0.56354032
   0.48391710  0.63582615  0.60244380
Direct configuration=    13
   0.53301307  0.36022365  0.39726316
   0.57990390  0.54255474  0.43550614
   0.69739447  0.49018240  0.53868996
   0.67980096  0.41103477  0.33372284
   0.39933909  0.36863470  0.45677392
   0.59196627  0.59218165  0.59957712
   0.46500932  0.46184870  0.57115918
   0.46398205  0.50079473  0.49103830
   0.51465915  0.45714509  0.52842282
   0.35876935  0.49445396  0.51132520
   0.46869878  0.44785821  0.41020794
   0.51662168  0.54964372  0.62963682
   0.52624981  0.48129510  0.32349446
   0.36514698  0.58104268  0.60747199
   0.58947387  0.43031093  0.33661594
   0.49438154  0.57880724  0.50353054
   0.43093772  0.54622973  0.56824272
   0.48408799  0.62418094  0.59869481
Direct configuration=    14
   0.52840980  0.35762723  0.39839127
   0.57740561  0.53599982  0.43206064
   0.69783744  0.49128520  0.53974558
   0.68105131  0.41046564  0.33267042
   0.40258176  0.36817887  0.46029925
   0.59229804  0.58713636  0.58980179
   0.46189826  0.45490091  0.57043668
   0.46066048  0.50158099  0.48538456
   0.51860715  0.45638411  0.52768828
   0.35254007  0.49443680  0.50964264
   0.47397225  0.44566862  0.40910768
   0.52010727  0.54710748  0.63445384
   0.52767569  0.48728118  0.32883177
   0.36082771  0.58324976  0.61099777
   0.59060543  0.43768766  0.34330348
   0.49370318  0.57939887  0.50225625
   0.43528049  0.54808953  0.56510799
   0.48397407  0.63194391  0.60119397
Direct configuration=    15
   0.53299237  0.36412878  0.39681416
   0.57618654  0.53848036  0.43558328
   0.69608907  0.49068551  0.53844626
   0.68204822  0.41035246  0.33374363
   0.40077167  0.37128323  0.45816268
   0.59408270  0.59272611  0.59546823
   0.45799523  0.46365660  0.57446929
   0.46301515  0.49999721  0.48896604
   0.52294195  0.45593844  0.52209838
   0.36180043  0.49427460  0.51259978
   0.47036732  0.45053373  0.41071742
   0.51092256  0.54935564  0.62865432
   0.52675546  0.47923221  0.32893678
   0.36680716  0.58038598  0.60619341
   0.58605557  0.43219670  0.33849535
   0.49463890  0.57948851  0.50678978
   0.43122444  0.54655352  0.56861151
   0.48474126  0.61915335  0.59662356
Direct configuration=    16
   0.53460345  0.36641451  0.39625970
   0.57575795  0.53935243  0.43682172
   0.69547440  0.49047468  0.53798946
   0.68239870  0.41031267  0.33412094
   0.40013531  0.37237461  0.45741153
   0.59471012  0.59469128  0.59746036
   0.45662306  0.46673481  0.57588701
   0.46384297  0.49944041  0.49022517
   0.52446592  0.45578176  0.52013316
   0.36505606  0.49421758  0.51363941
   0.46909995  0.45224414  0.41128335
   0.50769352  0.55014602  0.62661540
   0.52643194  0.47640246  0.32897370
   0.36890934  0.57937917  0.60450436
   0.58445599  0.43026627  0.33680498
   0.49496787  0.57952002  0.50838362
   0.42979846  0.54601351  0.56984323
   0.48501097  0.61465662  0.59501676
Direct configuration=    17
   0.53454914  0.37185086  0.39691507
   0.57144136  0.53602761  0.43945046
   0.69321520  0.49085270  0.53704972
   0.68342101  0.41042782  0.33506032
   0.40048554  0.37656436  0.45805845
   0.59517374  0.59648060  0.59763810
   0.45721204  0.47056430  0.57635365
   0.46275868  0.50113711  0.48771525
   0.52753509  0.45403601  0.51697551
   0.37189343  0.49373851  0.51679257
   0.47067092  0.45602281  0.41147036
   0.50251514  0.54477887  0.62360197
   0.52327013  0.47229643  0.33509873
   0.36803559  0.57955214  0.60291737
   0.58470828  0.42814514  0.33397755
   0.49647938  0.58064271  0.51437119
   0.43265538  0.54409746  0.56929092
   0.48341593  0.61120750  0.58863670
Direct configuration=    18
   0.53451965  0.37480393  0.39727107
   0.56909656  0.53422155  0.44087841
   0.69198799  0.49105805  0.53653924
   0.68397634  0.41049037  0.33557059
   0.40067578  0.37884026  0.45840986
   0.59542558  0.59745258  0.59773465
   0.45753198  0.47264450  0.57660713
   0.46216969  0.50205877  0.48635184
   0.52920228  0.45308770  0.51526025
   0.37560754  0.49347828  0.51850539
   0.47152428  0.45807541  0.41157194
   0.49970221  0.54186340  0.62196506
   0.52155261  0.47006601  0.33842588
   0.36756097  0.57964610  0.60205530
   0.58484532  0.42699293  0.33244168
   0.49730044  0.58125256  0.51762368
   0.43420727  0.54305664  0.56899089
   0.48254949  0.60933391  0.58517100
Direct configuration=    19
   0.53364520  0.37749984  0.39938334
   0.56481953  0.53027242  0.44267299
   0.68995536  0.49144723  0.53580515
   0.68466327  0.41069421  0.33635320
   0.40124739  0.38273712  0.45962261
   0.59489031  0.59795578  0.59713314
   0.46003283  0.47167463  0.57617589
   0.46176367  0.50401941  0.48466932
   0.53016635  0.45220257  0.51264936
   0.38097378  0.49290402  0.52161619
   0.47376189  0.46119999  0.41107859
   0.49709898  0.53693098  0.61976769
   0.51968903  0.46721626  0.34425863
   0.36630934  0.57972170  0.60069335
   0.58546461  0.42712035  0.32972033
   0.49999209  0.58036241  0.51661276
   0.43458193  0.54456192  0.56731185
   0.48038044  0.60990213  0.58584948
Direct configuration=    20
   0.53303222  0.37938967  0.40086403
   0.56182135  0.52750410  0.44393098
   0.68853050  0.49172004  0.53529056
   0.68514480  0.41083710  0.33690181
   0.40164808  0.38546880  0.46047274
   0.59451508  0.59830852  0.59671148
   0.46178592  0.47099475  0.57587359
   0.46147906  0.50539380  0.48348988
   0.53084216  0.45158210  0.51081914
   0.38473548  0.49250146  0.52379684
   0.47533045  0.46339030  0.41073275
   0.49527413  0.53347338  0.61822734
   0.51838267  0.46521860  0.34834736
   0.36543196  0.57977469  0.59973863
   0.58589872  0.42720967  0.32781267
   0.50187892  0.57973842  0.51590411
   0.43484456  0.54561712  0.56613484
   0.47885994  0.61030044  0.58632508
Direct configuration=    21
   0.53300943  0.37802940  0.40345889
   0.56060207  0.52544622  0.44280549
   0.68727706  0.49195655  0.53495090
   0.68516477  0.41106942  0.33734924
   0.40210739  0.38823904  0.46178679
   0.59325866  0.59801102  0.59595801
   0.46321274  0.46835824  0.57435179
   0.46132029  0.50681995  0.48339256
   0.52947984  0.45093941  0.51010123
   0.38720565  0.49141377  0.52593511
   0.47435719  0.46500794  0.41315751
   0.49617165  0.53250755  0.61785780
   0.52124162  0.46495954  0.34690588
   0.36465505  0.57964930  0.59888872
   0.58524409  0.42861571  0.32709297
   0.50335962  0.57934867  0.51476849
   0.43352552  0.54724500  0.56333948
   0.47824334  0.61080622  0.58927300
Direct configuration=    22
   0.53299085  0.37691955  0.40557604
   0.55960726  0.52376718  0.44188720
   0.68625437  0.49214951  0.53467376
   0.68518107  0.41125897  0.33771429
   0.40248215  0.39049929  0.46285893
   0.59223355  0.59776829  0.59534326
   0.46437689  0.46620711  0.57311015
   0.46119075  0.50798355  0.48331316
   0.52836832  0.45041503  0.50951548
   0.38922107  0.49052633  0.52767974
   0.47356310  0.46632778  0.41513587
   0.49690394  0.53171952  0.61755629
   0.52357425  0.46474817  0.34572977
   0.36402117  0.57954699  0.59819527
   0.58470997  0.42976291  0.32650577
   0.50456773  0.57903068  0.51384192
   0.43244931  0.54857320  0.56105873
   0.47774025  0.61121889  0.59167821
Direct configuration=    23
   0.53260903  0.37626634  0.40837419
   0.56004059  0.52223098  0.43886798
   0.68463066  0.49253672  0.53431799
   0.68490900  0.41164735  0.33827840
   0.40316226  0.39395915  0.46489998
   0.59018130  0.59711058  0.59423126
   0.46562998  0.46414414  0.57104534
   0.46085562  0.51085792  0.48440459
   0.52553311  0.44899292  0.50921229
   0.39079490  0.48757333  0.52987397
   0.47437582  0.46594833  0.41395003
   0.49787548  0.53154322  0.61659302
   0.52380713  0.46574404  0.34628147
   0.36303719  0.57948264  0.59744971
   0.58579771  0.42994427  0.32607175
   0.50507591  0.57978911  0.51535255
   0.43316995  0.55051908  0.55831767
   0.47795036  0.61013282  0.59385167
Direct configuration=    24
   0.53226227  0.37567311  0.41091540
   0.56043412  0.52083585  0.43612601
   0.68315606  0.49288837  0.53399489
   0.68466191  0.41200007  0.33879072
   0.40377991  0.39710130  0.46675359
   0.58831750  0.59651327  0.59322138
   0.46676801  0.46227062  0.56917013
   0.46055126  0.51346835  0.48539579
   0.52295825  0.44770140  0.50893694
   0.39222420  0.48489151  0.53186671
   0.47511390  0.46560373  0.41287308
   0.49875782  0.53138311  0.61571821
   0.52401862  0.46664846  0.34678250
   0.36214358  0.57942420  0.59677260
   0.58678556  0.43010898  0.32567759
   0.50553742  0.58047790  0.51672446
   0.43382441  0.55228626  0.55582833
   0.47814118  0.60914647  0.59582554
Direct configuration=    25
   0.53182235  0.37679996  0.41156392
   0.56129807  0.52106063  0.43508781
   0.68179590  0.49324825  0.53375004
   0.68465072  0.41242167  0.33946494
   0.40459511  0.39934079  0.46837833
   0.58681267  0.59586713  0.59225051
   0.46692935  0.46234807  0.56903162
   0.46160102  0.51348419  0.48247910
   0.52127913  0.44640652  0.50733022
   0.39308332  0.48331401  0.53365822
   0.47541031  0.46547485  0.41298582
   0.49888518  0.53081713  0.61452829
   0.52374575  0.46625485  0.34696193
   0.36220384  0.57911021  0.59613651
   0.58704674  0.42970524  0.32676840
   0.50576109  0.58131162  0.51806288
   0.43361530  0.55342846  0.55619677
   0.47890014  0.60802936  0.59673854
Direct configuration=    26
   0.53150116  0.37762269  0.41203741
   0.56192884  0.52122475  0.43432980
   0.68080284  0.49351100  0.53357127
   0.68464255  0.41272949  0.33995720
   0.40519029  0.40097586  0.46956456
   0.58571399  0.59539538  0.59154167
   0.46704714  0.46240463  0.56893049
   0.46236746  0.51349575  0.48034960
   0.52005318  0.44546111  0.50615715
   0.39371057  0.48216227  0.53496622
   0.47562672  0.46538076  0.41306813
   0.49897817  0.53040391  0.61365952
   0.52354653  0.46596747  0.34709294
   0.36224783  0.57888097  0.59567210
   0.58723742  0.42941047  0.32756480
   0.50592440  0.58192032  0.51904008
   0.43346262  0.55426238  0.55646578
   0.47945426  0.60721375  0.59740513
Direct configuration=    27
   0.53139897  0.37813062  0.41163104
   0.56273272  0.52212910  0.43440898
   0.67933772  0.49395565  0.53334909
   0.68501940  0.41324081  0.34083767
   0.40617211  0.40200707  0.47062818
   0.58517889  0.59473798  0.59083559
   0.46708213  0.46317780  0.56939145
   0.46265537  0.51422762  0.47998885
   0.51915324  0.44443891  0.50372109
   0.39447691  0.48291466  0.53671381
   0.47548757  0.46549271  0.41273412
   0.49903361  0.52914799  0.61279036
   0.52361433  0.46501728  0.34654462
   0.36232110  0.57860938  0.59524537
   0.58673601  0.42903176  0.32952883
   0.50575475  0.58185510  0.51840251
   0.43293130  0.55318172  0.55613534
   0.48034988  0.60712679  0.59848697
Direct configuration=    28
   0.53133926  0.37842735  0.41139364
   0.56320234  0.52265741  0.43445523
   0.67848182  0.49421540  0.53321930
   0.68523955  0.41353952  0.34135203
   0.40674568  0.40260950  0.47124954
   0.58486629  0.59435394  0.59042310
   0.46710257  0.46362948  0.56966074
   0.46282356  0.51465517  0.47977811
   0.51862750  0.44384175  0.50229797
   0.39492459  0.48335420  0.53773473
   0.47540628  0.46555811  0.41253899
   0.49906599  0.52841429  0.61228261
   0.52365394  0.46446219  0.34622430
   0.36236390  0.57845072  0.59499608
   0.58644308  0.42881053  0.33067619
   0.50565565  0.58181700  0.51803004
   0.43262090  0.55255041  0.55594230
   0.48087310  0.60707598  0.59911896
Direct configuration=    29
   0.53140030  0.37757975  0.41069977
   0.56379181  0.52330496  0.43458344
   0.67638686  0.49497877  0.53284344
   0.68575600  0.41429116  0.34258455
   0.40795366  0.40331761  0.47248791
   0.58514469  0.59362017  0.58976757
   0.46767473  0.46392050  0.56960953
   0.46252884  0.51546157  0.48017589
   0.51735094  0.44330573  0.49962279
   0.39422154  0.48407238  0.53901511
   0.47527049  0.46653178  0.41186209
   0.49944425  0.52776405  0.61179622
   0.52264230  0.46445336  0.34598140
   0.36231868  0.57808090  0.59467863
   0.58725193  0.42778382  0.33285349
   0.50493762  0.58143750  0.51714474
   0.43391144  0.55244891  0.55623273
   0.48144993  0.60607003  0.59943456
Direct configuration=    30
   0.53145013  0.37688788  0.41013339
   0.56427297  0.52383353  0.43468808
   0.67467683  0.49560188  0.53253664
   0.68617756  0.41490470  0.34359060
   0.40893969  0.40389561  0.47349875
   0.58537193  0.59302123  0.58923249
   0.46814176  0.46415805  0.56956773
   0.46228826  0.51611981  0.48050058
   0.51630893  0.44286820  0.49743914
   0.39364766  0.48465859  0.54006023
   0.47515965  0.46732655  0.41130957
   0.49975300  0.52723329  0.61139920
   0.52181654  0.46444615  0.34578313
   0.36228176  0.57777902  0.59441952
   0.58791216  0.42694576  0.33463074
   0.50435152  0.58112773  0.51642210
   0.43496486  0.55236606  0.55646979
   0.48192078  0.60524890  0.59969218
Direct configuration=    31
   0.53125092  0.37595219  0.40953146
   0.56451571  0.52370122  0.43440583
   0.67260188  0.49645074  0.53214031
   0.68687019  0.41562823  0.34482653
   0.40990629  0.40435640  0.47462487
   0.58593856  0.59249820  0.58862921
   0.46841964  0.46382995  0.56867812
   0.46176667  0.51590938  0.48011625
   0.51501288  0.44286178  0.49583253
   0.39253216  0.48535957  0.54098883
   0.47475350  0.46857202  0.41131965
   0.50062202  0.52701876  0.61148446
   0.52230910  0.46413503  0.34517660
   0.36241905  0.57703422  0.59405470
   0.58782300  0.42676106  0.33649157
   0.50417784  0.58122897  0.51619532
   0.43597609  0.55250630  0.55728171
   0.48254050  0.60461894  0.59959592
Direct configuration=    32
   0.53097158  0.37464012  0.40868741
   0.56485609  0.52351570  0.43401005
   0.66969228  0.49764106  0.53158457
   0.68784143  0.41664280  0.34655960
   0.41126170  0.40500253  0.47620396
   0.58673311  0.59176478  0.58778325
   0.46880929  0.46336987  0.56743065
   0.46103528  0.51561432  0.47957732
   0.51319550  0.44285277  0.49357966
   0.39096796  0.48634251  0.54229096
   0.47418399  0.47031847  0.41133380
   0.50184060  0.52671794  0.61160402
   0.52299978  0.46369876  0.34432608
   0.36261157  0.57598982  0.59354314
   0.58769798  0.42650205  0.33910091
   0.50393428  0.58137094  0.51587732
   0.43739408  0.55270295  0.55842021
   0.48340949  0.60373557  0.59946095
Direct configuration=    33
   0.53038493  0.37422265  0.40840426
   0.56505750  0.52297737  0.43364896
   0.66782715  0.49851288  0.53121831
   0.68840072  0.41725617  0.34761695
   0.41182165  0.40525102  0.47712135
   0.58733282  0.59142727  0.58730452
   0.46883449  0.46323293  0.56655935
   0.46045164  0.51559004  0.47944965
   0.51237448  0.44288490  0.49277884
   0.39014184  0.48723989  0.54307460
   0.47411797  0.47094588  0.41052508
   0.50269434  0.52628852  0.61166488
   0.52314373  0.46351344  0.34427850
   0.36279050  0.57498403  0.59310207
   0.58797663  0.42652999  0.34033342
   0.50419119  0.58154393  0.51578707
   0.43769613  0.55230659  0.55903388
   0.48419828  0.60371546  0.59947217
Direct configuration=    34
   0.52862497  0.37297023  0.40755482
   0.56566174  0.52136235  0.43256568
   0.66223176  0.50112837  0.53011955
   0.69007860  0.41909630  0.35078902
   0.41350150  0.40599651  0.47987352
   0.58913194  0.59041473  0.58586832
   0.46891007  0.46282209  0.56394543
   0.45870073  0.51551718  0.47906663
   0.50991141  0.44298128  0.49037639
   0.38766348  0.48993205  0.54542551
   0.47391991  0.47282809  0.40809894
   0.50525555  0.52500028  0.61184745
   0.52357555  0.46295750  0.34413573
   0.36332730  0.57196665  0.59177886
   0.58881261  0.42661379  0.34403097
   0.50496193  0.58206290  0.51551633
   0.43860228  0.55111751  0.56087488
   0.48656466  0.60365514  0.59950583
Direct configuration=    35
   0.52510506  0.37046539  0.40585594
   0.56687022  0.51813233  0.43039912
   0.65104099  0.50635934  0.52792201
   0.69343434  0.42277655  0.35713316
   0.41686119  0.40748748  0.48537784
   0.59273019  0.58838967  0.58299593
   0.46906124  0.46200042  0.55871760
   0.45519890  0.51537148  0.47830058
   0.50498529  0.44317403  0.48557150
   0.38270677  0.49531636  0.55012734
   0.47352378  0.47659252  0.40324666
   0.51037798  0.52242379  0.61221259
   0.52443921  0.46184562  0.34385020
   0.36440089  0.56593191  0.58913245
   0.59048455  0.42678140  0.35142608
   0.50650340  0.58310083  0.51497483
   0.44041458  0.54873934  0.56455689
   0.49129741  0.60353449  0.59957314
Direct configuration=    36
   0.52794562  0.37248679  0.40722693
   0.56589498  0.52073895  0.43214753
   0.66007192  0.50213796  0.52969542
   0.69072626  0.41980659  0.35201345
   0.41414992  0.40628427  0.48093586
   0.58982641  0.59002389  0.58531395
   0.46893925  0.46266351  0.56293645
   0.45802487  0.51548906  0.47891878
   0.50896066  0.44301848  0.48944904
   0.38670683  0.49097123  0.54633297
   0.47384346  0.47355464  0.40716244
   0.50624419  0.52450301  0.61191792
   0.52374224  0.46274291  0.34408062
   0.36353450  0.57080194  0.59126810
   0.58913529  0.42664614  0.34545824
   0.50525944  0.58226322  0.51541182
   0.43895206  0.55065852  0.56158552
   0.48747809  0.60363185  0.59951882
Direct configuration=    37
   0.52612245  0.37272962  0.40719588
   0.56638351  0.51933236  0.43165529
   0.65695357  0.50367590  0.52885083
   0.69156865  0.42088153  0.35394902
   0.41385795  0.40618055  0.48218646
   0.59072525  0.59003612  0.58475878
   0.46833632  0.46367354  0.56252854
   0.45726677  0.51615724  0.47868472
   0.50887392  0.44299840  0.48857007
   0.38531254  0.49275611  0.54737503
   0.47321392  0.47378586  0.40567263
   0.50754697  0.52361919  0.61110070
   0.52356050  0.46234606  0.34399338
   0.36382733  0.56775818  0.58990082
   0.59049021  0.42710418  0.34701808
   0.50612016  0.58202069  0.51535135
   0.44008586  0.55007784  0.56289212
   0.48919010  0.60328955  0.59969016
Direct configuration=    38
   0.52399466  0.37301302  0.40715964
   0.56695366  0.51769076  0.43108080
   0.65331421  0.50547080  0.52786513
   0.69255178  0.42213607  0.35620798
   0.41351720  0.40605952  0.48364599
   0.59177425  0.59005040  0.58411086
   0.46763267  0.46485232  0.56205248
   0.45638202  0.51693704  0.47841155
   0.50877269  0.44297498  0.48754424
   0.38368531  0.49483921  0.54859118
   0.47247920  0.47405572  0.40393391
   0.50906741  0.52258771  0.61014694
   0.52334840  0.46188292  0.34389156
   0.36416909  0.56420590  0.58830511
   0.59207150  0.42763875  0.34883852
   0.50712470  0.58173765  0.51528079
   0.44140908  0.54940014  0.56441702
   0.49118814  0.60289005  0.59989013
Direct configuration=    39
   0.52261844  0.37377958  0.40698008
   0.56688643  0.51683962  0.43032012
   0.65231271  0.50555744  0.52708117
   0.69309841  0.42291577  0.35777993
   0.41207352  0.40557066  0.48398971
   0.59179917  0.59148691  0.58457399
   0.46680884  0.46623208  0.56259449
   0.45666953  0.51764141  0.47765649
   0.50901580  0.44336655  0.48792974
   0.38337011  0.49497687  0.54800959
   0.47099343  0.47379273  0.40471453
   0.51005204  0.52226622  0.60893392
   0.52414794  0.46099515  0.34312444
   0.36392679  0.56179286  0.58735195
   0.59221220  0.42855664  0.34956723
   0.50795758  0.58085658  0.51522426
   0.44260179  0.54973277  0.56537109
   0.49289126  0.60206311  0.60017111
Direct configuration=    40
   0.52165792  0.37431460  0.40685476
   0.56683950  0.51624558  0.42978922
   0.65161372  0.50561791  0.52653400
   0.69347992  0.42345995  0.35887706
   0.41106592  0.40522946  0.48422961
   0.59181656  0.59248951  0.58489723
   0.46623385  0.46719508  0.56297278
   0.45687020  0.51813302  0.47712951
   0.50918547  0.44363984  0.48819880
   0.38315011  0.49507295  0.54760367
   0.46995646  0.47360919  0.40525935
   0.51073926  0.52204183  0.60808731
   0.52470597  0.46037554  0.34258904
   0.36375768  0.56010870  0.58668671
   0.59231040  0.42919727  0.35007582
   0.50853888  0.58024164  0.51518481
   0.44343422  0.54996492  0.56603697
   0.49407994  0.60148596  0.60036721
Direct configuration=    41
   0.52045530  0.37508326  0.40664590
   0.56609566  0.51594603  0.42833876
   0.65162688  0.50493396  0.52592484
   0.69376150  0.42426704  0.36067887
   0.40936458  0.40484206  0.48422871
   0.59203405  0.59486130  0.58595724
   0.46537365  0.46765917  0.56327348
   0.45768477  0.51921291  0.47678384
   0.50882857  0.44425648  0.48974495
   0.38433478  0.49331292  0.54546062
   0.46956133  0.47243825  0.40531336
   0.51211893  0.52168579  0.60713958
   0.52361842  0.46022626  0.34267654
   0.36284051  0.55901806  0.58651905
   0.59292915  0.42975190  0.35047812
   0.50953037  0.57903975  0.51493877
   0.44306252  0.55091528  0.56647896
   0.49621504  0.60097252  0.60079228
Direct configuration=    42
   0.51931849  0.37580987  0.40644846
   0.56539253  0.51566288  0.42696769
   0.65163932  0.50428744  0.52534901
   0.69402766  0.42502996  0.36238208
   0.40775635  0.40447586  0.48422786
   0.59223964  0.59710328  0.58695924
   0.46456052  0.46809787  0.56355772
   0.45845476  0.52023370  0.47645708
   0.50849120  0.44483938  0.49120649
   0.38545462  0.49164921  0.54343485
   0.46918783  0.47133140  0.40536441
   0.51342310  0.52134923  0.60624371
   0.52259039  0.46008514  0.34275925
   0.36197353  0.55798712  0.58636056
   0.59351404  0.43027617  0.35085842