       N       E                     dE             d eps       ncg     rms          rms(c)
DAV:   1     0.314055229365E+03    0.31406E+03   -0.19026E+04   144   0.552E+02
DAV:   2    -0.433277934488E+01   -0.31839E+03   -0.30863E+03   152   0.171E+02
DAV:   3    -0.112759609183E+03   -0.10843E+03   -0.10627E+03   128   0.723E+01
DAV:   4    -0.130187554274E+03   -0.17428E+02   -0.16886E+02   128   0.338E+01
DAV:   5    -0.131152808790E+03   -0.96525E+00   -0.95727E+00   144   0.757E+00    0.267E+01
DAV:   6    -0.102531696616E+03    0.28621E+02   -0.17197E+02   144   0.575E+01    0.179E+01
DAV:   7    -0.101416205311E+03    0.11155E+01   -0.97610E+01   136   0.557E+01    0.104E+01
DAV:   8    -0.984458373764E+02    0.29704E+01   -0.83657E+00   128   0.146E+01    0.573E+00
DAV:   9    -0.979769977032E+02    0.46884E+00   -0.90879E+00   144   0.126E+01    0.593E+00
DAV:  10    -0.977021699807E+02    0.27483E+00   -0.24523E+00   136   0.780E+00    0.340E+00
DAV:  11    -0.975538576681E+02    0.14831E+00   -0.87575E-01   136   0.487E+00    0.848E-01
DAV:  12    -0.975365198673E+02    0.17338E-01   -0.13065E-01   128   0.187E+00    0.753E-01
DAV:  13    -0.975274837985E+02    0.90361E-02   -0.53242E-02   128   0.135E+00    0.219E-01
DAV:  14    -0.975307066303E+02   -0.32228E-02   -0.15590E-02   128   0.431E-01    0.238E-01
DAV:  15    -0.975369667182E+02   -0.62601E-02   -0.53310E-03   112   0.278E-01    0.151E-01
DAV:  16    -0.975412454121E+02   -0.42787E-02   -0.56008E-03   136   0.318E-01    0.799E-02
DAV:  17    -0.975470940391E+02   -0.58486E-02   -0.78051E-04   104   0.126E-01    0.420E-02
DAV:  18    -0.975521320483E+02   -0.50380E-02   -0.50080E-04    96   0.639E-02    0.223E-02
DAV:  19    -0.975556434862E+02   -0.35114E-02   -0.36101E-04   104   0.461E-02    0.107E-02
DAV:  20    -0.975578590583E+02   -0.22156E-02   -0.23343E-04    96   0.343E-02    0.877E-03
DAV:  21    -0.975585479461E+02   -0.68889E-03   -0.37899E-05    88   0.198E-02    0.612E-03
DAV:  22    -0.975591776659E+02   -0.62972E-03   -0.64068E-05    88   0.166E-02    0.290E-03
DAV:  23    -0.975593404801E+02   -0.16281E-03   -0.13773E-05    72   0.100E-02    0.184E-03
DAV:  24    -0.975594432878E+02   -0.10281E-03   -0.95282E-06    72   0.707E-03    0.150E-03
DAV:  25    -0.975594719897E+02   -0.28702E-04   -0.33213E-06    72   0.453E-03
   1 F= -.97559472E+02 E0= -.97559472E+02  d E =-.975595E+02
       N       E                     dE             d eps       ncg     rms          rms(c)
DAV:   1    -0.975469234043E+02    0.12520E-01   -0.33771E+00   120   0.215E+01    0.575E-01
DAV:   2    -0.975938821852E+02   -0.46959E-01   -0.51266E-01    96   0.354E+00    0.351E-01
DAV:   3    -0.975938504056E+02    0.31780E-04   -0.15953E-02   144   0.815E-01    0.218E-01
DAV:   4    -0.975939100584E+02   -0.59653E-04   -0.50180E-03   144   0.438E-01    0.151E-01
DAV:   5    -0.975938896995E+02    0.20359E-04   -0.23608E-03   136   0.276E-01    0.453E-02
DAV:   6    -0.975939238151E+02   -0.34116E-04   -0.34412E-04    96   0.135E-01
   2 F= -.97593924E+02 E0= -.97593924E+02  d E =-.344518E-01
       N       E                     dE             d eps       ncg     rms          rms(c)
DAV:   1    -0.975757702795E+02    0.18119E-01   -0.18266E+00   120   0.158E+01    0.423E-01
DAV:   2    -0.976011024454E+02   -0.25332E-01   -0.27742E-01    96   0.260E+00    0.266E-01
DAV:   3    -0.976011373579E+02   -0.34912E-04   -0.86544E-03   144   0.602E-01    0.162E-01
DAV:   4    -0.976012308835E+02   -0.93526E-04   -0.28046E-03   136   0.329E-01    0.115E-01
DAV:   5    -0.976012611933E+02   -0.30310E-04   -0.13620E-03   120   0.219E-01    0.356E-02
DAV:   6    -0.976013041029E+02   -0.42910E-04   -0.25151E-04    88   0.133E-01
   3 F= -.97601304E+02 E0= -.97601304E+02  d E =-.418321E-01
       N       E                     dE             d eps       ncg     rms          rms(c)
DAV:   1    -0.976111948026E+02   -0.99336E-02   -0.19121E+00    96   0.864E+00    0.390E-01
DAV:   2    -0.976155152967E+02   -0.43205E-02   -0.89657E-02   120   0.163E+00    0.308E-01
DAV:   3    -0.976148413322E+02    0.67396E-03   -0.14199E-02   136   0.105E+00    0.233E-01
DAV:   4    -0.976140929559E+02    0.74838E-03   -0.59357E-03   136   0.531E-01    0.651E-02
DAV:   5    -0.976141353569E+02   -0.42401E-04   -0.92229E-04   120   0.190E-01
   4 F= -.97614135E+02 E0= -.97614135E+02  d E =-.128313E-01
       N       E                     dE             d eps       ncg     rms          rms(c)
DAV:   1    -0.976148104087E+02   -0.71745E-03   -0.65039E-02    96   0.160E+00    0.695E-02
DAV:   2    -0.976149559174E+02   -0.14551E-03   -0.29154E-03   112   0.289E-01    0.492E-02
DAV:   3    -0.976149518342E+02    0.40832E-05   -0.39989E-04   104   0.166E-01
   5 F= -.97614952E+02 E0= -.97614952E+02  d E =-.136477E-01
       N       E                     dE             d eps       ncg     rms          rms(c)
DAV:   1    -0.976245204910E+02   -0.95646E-02   -0.94245E-01   104   0.729E+00    0.251E-01
DAV:   2    -0.976290141308E+02   -0.44936E-02   -0.61452E-02   104   0.144E+00    0.220E-01
DAV:   3    -0.976286959425E+02    0.31819E-03   -0.66828E-03   144   0.729E-01    0.139E-01
DAV:   4    -0.976285318560E+02    0.16409E-03   -0.17365E-03   128   0.311E-01    0.536E-02
DAV:   5    -0.976285838098E+02   -0.51954E-04   -0.39982E-04   104   0.137E-01
   6 F= -.97628584E+02 E0= -.97628584E+02  d E =-.136320E-01
       N       E                     dE             d eps       ncg     rms          rms(c)
DAV:   1    -0.976288743493E+02   -0.34249E-03   -0.77996E-01   104   0.663E+00    0.234E-01
DAV:   2    -0.976325792150E+02   -0.37049E-02   -0.50755E-02   112   0.132E+00    0.206E-01
DAV:   3    -0.976323001881E+02    0.27903E-03   -0.56646E-03   144   0.684E-01    0.129E-01
DAV:   4    -0.976321821670E+02    0.11802E-03   -0.14112E-03   128   0.287E-01    0.507E-02
DAV:   5    -0.976322396128E+02   -0.57446E-04   -0.40347E-04   104   0.135E-01
   7 F= -.97632240E+02 E0= -.97632240E+02  d E =-.172878E-01
       N       E                     dE             d eps       ncg     rms          rms(c)
DAV:   1    -0.976388053633E+02   -0.66232E-02   -0.13038E+00   104   0.861E+00    0.286E-01
DAV:   2    -0.976440665172E+02   -0.52612E-02   -0.75390E-02   104   0.153E+00    0.213E-01
DAV:   3    -0.976439771588E+02    0.89358E-04   -0.71065E-03   152   0.670E-01    0.156E-01
DAV:   4    -0.976437553930E+02    0.22177E-03   -0.24264E-03   128   0.418E-01    0.711E-02
DAV:   5    -0.976438290662E+02   -0.73673E-04   -0.97184E-04   128   0.242E-01
   8 F= -.97643829E+02 E0= -.97643829E+02  d E =-.115895E-01
       N       E                     dE             d eps       ncg     rms          rms(c)
DAV:   1    -0.976438209474E+02   -0.65554E-04   -0.39752E-01   104   0.475E+00    0.161E-01
DAV:   2    -0.976454291887E+02   -0.16082E-02   -0.23088E-02   112   0.847E-01    0.123E-01
DAV:   3    -0.976454053554E+02    0.23833E-04   -0.22577E-03   144   0.386E-01    0.882E-02
DAV:   4    -0.976453567358E+02    0.48620E-04   -0.73930E-04   120   0.235E-01
   9 F= -.97645357E+02 E0= -.97645357E+02  d E =-.131171E-01
       N       E                     dE             d eps       ncg     rms          rms(c)
DAV:   1    -0.976542206008E+02   -0.88152E-02   -0.10550E+00    96   0.634E+00    0.270E-01
DAV:   2    -0.976564167391E+02   -0.21961E-02   -0.48040E-02   112   0.120E+00    0.235E-01
DAV:   3    -0.976558851082E+02    0.53163E-03   -0.56036E-03   144   0.513E-01    0.117E-01
DAV:   4    -0.976557647035E+02    0.12040E-03   -0.15248E-03   128   0.243E-01    0.506E-02
DAV:   5    -0.976558142734E+02   -0.49570E-04   -0.56815E-04   104   0.199E-01
  10 F= -.97655814E+02 E0= -.97655814E+02  d E =-.104575E-01
       N       E                     dE             d eps       ncg     rms          rms(c)
DAV:   1    -0.976576487535E+02   -0.18841E-02   -0.87552E-01    96   0.576E+00    0.253E-01
DAV:   2    -0.976595078322E+02   -0.18591E-02   -0.41953E-02   112   0.111E+00    0.235E-01
DAV:   3    -0.976588739336E+02    0.63390E-03   -0.50613E-03   144   0.453E-01    0.108E-01
DAV:   4    -0.976587885699E+02    0.85364E-04   -0.12118E-03   112   0.167E-01    0.377E-02
DAV:   5    -0.976588203967E+02   -0.31827E-04   -0.21700E-04    80   0.953E-02
  11 F= -.97658820E+02 E0= -.97658820E+02  d E =-.134637E-01
       N       E                     dE             d eps       ncg     rms          rms(c)
DAV:   1    -0.976617569477E+02   -0.29684E-02   -0.83842E-01    96   0.698E+00    0.259E-01
DAV:   2    -0.976657207964E+02   -0.39638E-02   -0.63362E-02   112   0.143E+00    0.244E-01
DAV:   3    -0.976651926524E+02    0.52814E-03   -0.60552E-03   144   0.588E-01    0.115E-01
DAV:   4    -0.976651890838E+02    0.35686E-05   -0.13434E-03   128   0.283E-01    0.721E-02
DAV:   5    -0.976652160712E+02   -0.26987E-04   -0.96000E-04   120   0.267E-01
  12 F= -.97665216E+02 E0= -.97665216E+02  d E =-.639567E-02
       N       E                     dE             d eps       ncg     rms          rms(c)
DAV:   1    -0.976652236887E+02   -0.34605E-04   -0.69677E-02   104   0.201E+00    0.803E-02
DAV:   2    -0.976655613989E+02   -0.33771E-03   -0.54821E-03   120   0.410E-01    0.773E-02
DAV:   3    -0.976655036573E+02    0.57742E-04   -0.56685E-04   112   0.181E-01
  13 F= -.97665504E+02 E0= -.97665504E+02  d E =-.668326E-02
       N       E                     dE             d eps       ncg     rms          rms(c)
DAV:   1    -0.976643991445E+02    0.11623E-02   -0.46817E-01   112   0.600E+00    0.195E-01
DAV:   2    -0.976684089809E+02   -0.40098E-02   -0.52560E-02   104   0.120E+00    0.149E-01
DAV:   3    -0.976683266878E+02    0.82293E-04   -0.36350E-03   136   0.446E-01    0.875E-02
DAV:   4    -0.976682984735E+02    0.28214E-04   -0.80756E-04   128   0.250E-01
  14 F= -.97668298E+02 E0= -.97668298E+02  d E =-.279482E-02
       N       E                     dE             d eps       ncg     rms          rms(c)
DAV:   1    -0.976683319579E+02   -0.52701E-05   -0.52881E-04   104   0.201E-01    0.414E-02
DAV:   2    -0.976684132165E+02   -0.81259E-04   -0.95668E-04   112   0.248E-01
  15 F= -.97668413E+02 E0= -.97668413E+02  d E =-.290956E-02
       N       E                     dE             d eps       ncg     rms          rms(c)
DAV:   1    -0.976668699063E+02    0.14621E-02   -0.26265E-01   112   0.509E+00    0.134E-01
DAV:   2    -0.976700600312E+02   -0.31901E-02   -0.36814E-02    96   0.101E+00    0.889E-02
DAV:   3    -0.976700838763E+02   -0.23845E-04   -0.17651E-03   144   0.299E-01    0.613E-02
DAV:   4    -0.976700897427E+02   -0.58665E-05   -0.39708E-04    96   0.189E-01
  16 F= -.97670090E+02 E0= -.97670090E+02  d E =-.167653E-02
       N       E                     dE             d eps       ncg     rms          rms(c)
DAV:   1    -0.976697539904E+02    0.32989E-03   -0.38850E-02   112   0.196E+00    0.563E-02
DAV:   2    -0.976702225121E+02   -0.46852E-03   -0.55107E-03    96   0.400E-01    0.445E-02
DAV:   3    -0.976702174616E+02    0.50505E-05   -0.32665E-04   104   0.141E-01
  17 F= -.97670217E+02 E0= -.97670217E+02  d E =-.180425E-02
       N       E                     dE             d eps       ncg     rms          rms(c)
DAV:   1    -0.976705265277E+02   -0.30402E-03   -0.52610E-02   112   0.215E+00    0.648E-02
DAV:   2    -0.976710498676E+02   -0.52334E-03   -0.62557E-03   112   0.444E-01    0.532E-02
DAV:   3    -0.976710427032E+02    0.71644E-05   -0.44889E-04   112   0.189E-01
  18 F= -.97671043E+02 E0= -.97671043E+02  d E =-.825242E-03
       N       E                     dE             d eps       ncg     rms          rms(c)
DAV:   1    -0.976708770236E+02    0.17284E-03   -0.31097E-02   112   0.166E+00    0.545E-02
DAV:   2    -0.976711736315E+02   -0.29661E-03   -0.36949E-03   112   0.323E-01    0.364E-02
DAV:   3    -0.976711755622E+02   -0.19308E-05   -0.17058E-04    88   0.862E-02
  19 F= -.97671176E+02 E0= -.97671176E+02  d E =-.958101E-03
