 vasp.6.4.1 05Apr23 (build May 06 2024 18:04:33) complex                        
  
 executed on             LinuxIFC date 2024.07.11  23:07:31
 running   32 mpi-ranks, on    1 nodes
 distrk:  each k-point on   32 cores,    1 groups
 distr:  one band on NCORE=   8 cores,    4 groups


--------------------------------------------------------------------------------------------------------


 INCAR:
   SIGMA = 0.100000
   GGA = PE
   PREC = Normal
   IBRION = 2
   ISMEAR = 0
   LORBIT = 10
   NSW = 500
   NCORE = 8
   LASPH = .TRUE.
   LCHARG = .FALSE.
   LWAVE = .FALSE.
   LREAL = Auto

 POTCAR:    PAW_PBE Ti_sv 26Sep2005               
 POTCAR:    PAW_PBE Al 04Jan2001                  
 POTCAR:    PAW_PBE B 06Sep2000                   
 POTCAR:    PAW_PBE Ti_sv 26Sep2005               
   SHA256 =  4d747badb5a5ea28d858fbac70885b3f8929d6fd9e5b0dbe1ecb9878dc164da1 Ti_sv/POTCAR          
   COPYR  = (c) Copyright 26Sep2005 Georg Kresse                                                    
   COPYR  = This file is part of the software VASP. Any use, copying, and all other rights are regul
   COPYR  = If you do not have a valid VASP license, you may not use, copy or distribute this file. 
   VRHFIN =Ti: 3p4s3d                                                                               
   LEXCH  = PE                                                                                      
   EATOM  =  1588.0892 eV,  116.7213 Ry                                                             
                                                                                                    
   TITEL  = PAW_PBE Ti_sv 26Sep2005                                                                 
   LULTRA =        F    use ultrasoft PP ?                                                          
   IUNSCR =        1    unscreen: 0-lin 1-nonlin 2-no                                               
   RPACOR =    2.000    partial core radius                                                         
   POMASS =   47.880; ZVAL   =   12.000    mass and valenz                                          
   RCORE  =    2.300    outmost cutoff radius                                                       
   RWIGS  =    2.300; RWIGS  =    1.217    wigner-seitz radius (au A)                               
   ENMAX  =  274.610; ENMIN  =  205.957 eV                                                          
   ICORE  =        3    local potential                                                             
   LCOR   =        T    correct aug charges                                                         
   LPAW   =        T    paw PP                                                                      
   EAUG   =  482.848                                                                                
   RMAX   =    2.348    core radius for proj-oper                                                   
   RAUG   =    1.300    factor for augmentation sphere                                              
   RDEP   =    2.381    radius for radial grids                                                     
   RDEPT  =    1.930    core radius for aug-charge                                                  
                                                                                                    
   Atomic configuration                                                                             
    8 entries                                                                                       
     n  l   j            E        occ.                                                              
     1  0  0.50     -4865.3608   2.0000                                                             
     2  0  0.50      -533.1368   2.0000                                                             
     2  1  1.50      -440.5031   6.0000                                                             
     3  0  0.50       -59.3186   2.0000                                                             
     4  0  0.50        -3.7291   1.0000                                                             
     3  1  1.50       -35.7012   6.0000                                                             
     3  2  2.50        -1.9157   3.0000                                                             
     4  3  2.50        -1.3606   0.0000                                                             
   Description                                                                                      
     l       E           TYP  RCUT    TYP  RCUT                                                     
     0    -59.3185931     23  1.800                                                                 
     0     -3.7290822     23  2.300                                                                 
     1    -35.7012045     23  2.300                                                                 
     1     -1.3605826     23  2.300                                                                 
     2     -1.9156920     23  2.300                                                                 
     2     -0.0236318     23  2.300                                                                 
     3     -1.3605826     23  2.300                                                                 
  local pseudopotential read in
  partial core-charges read in
  partial kinetic energy density read in
  atomic valenz-charges read in
  non local Contribution for L=           0  read in
    real space projection operators read in
  non local Contribution for L=           0  read in
    real space projection operators read in
  non local Contribution for L=           1  read in
    real space projection operators read in
  non local Contribution for L=           1  read in
    real space projection operators read in
  non local Contribution for L=           2  read in
    real space projection operators read in
  non local Contribution for L=           2  read in
    real space projection operators read in
    PAW grid and wavefunctions read in
 
   number of l-projection  operators is LMAX  =           6
   number of lm-projection operators is LMMAX =          18
 
 POTCAR:    PAW_PBE Al 04Jan2001                  
   SHA256 =  17880443556af62b473fe41b62a467bd001ad55d2cabe504a3f22e34d4e9db96 Al/POTCAR             
   COPYR  = (c) Copyright 04Jan2001 Georg Kresse                                                    
   COPYR  = This file is part of the software VASP. Any use, copying, and all other rights are regul
   COPYR  = If you do not have a valid VASP license, you may not use, copy or distribute this file. 
   VRHFIN =Al: s2p1                                                                                 
   LEXCH  = PE                                                                                      
   EATOM  =    53.5387 eV,    3.9350 Ry                                                             
                                                                                                    
   TITEL  = PAW_PBE Al 04Jan2001                                                                    
   LULTRA =        F    use ultrasoft PP ?                                                          
   IUNSCR =        1    unscreen: 0-lin 1-nonlin 2-no                                               
   RPACOR =    1.500    partial core radius                                                         
   POMASS =   26.981; ZVAL   =    3.000    mass and valenz                                          
   RCORE  =    1.900    outmost cutoff radius                                                       
   RWIGS  =    2.650; RWIGS  =    1.402    wigner-seitz radius (au A)                               
   ENMAX  =  240.300; ENMIN  =  180.225 eV                                                          
   ICORE  =        2    local potential                                                             
   LCOR   =        T    correct aug charges                                                         
   LPAW   =        T    paw PP                                                                      
   EAUG   =  291.052                                                                                
   DEXC   =    0.000                                                                                
   RMAX   =    1.939    core radius for proj-oper                                                   
   RAUG   =    1.300    factor for augmentation sphere                                              
   RDEP   =    1.966    radius for radial grids                                                     
   RDEPT  =    1.856    core radius for aug-charge                                                  
                                                                                                    
   Atomic configuration                                                                             
    6 entries                                                                                       
     n  l   j            E        occ.                                                              
     1  0  0.50     -1511.1048   2.0000                                                             
     2  0  0.50      -108.1629   2.0000                                                             
     2  1  1.50       -69.6402   6.0000                                                             
     3  0  0.50        -7.7528   2.0000                                                             
     3  1  1.50        -2.7121   1.0000                                                             
     3  2  2.50        -2.7212   0.0000                                                             
   Description                                                                                      
     l       E           TYP  RCUT    TYP  RCUT                                                     
     0     -7.7528455     23  1.900                                                                 
     0     -3.3096929     23  1.900                                                                 
     1     -2.7120682     23  1.900                                                                 
     1     13.6058260     23  1.900                                                                 
     2     -2.7211652      7  1.900                                                                 
  local pseudopotential read in
  partial core-charges read in
  partial kinetic energy density read in
  atomic valenz-charges read in
  non local Contribution for L=           0  read in
    real space projection operators read in
  non local Contribution for L=           0  read in
    real space projection operators read in
  non local Contribution for L=           1  read in
    real space projection operators read in
  non local Contribution for L=           1  read in
    real space projection operators read in
    PAW grid and wavefunctions read in
 
   number of l-projection  operators is LMAX  =           4
   number of lm-projection operators is LMMAX =           8
 
 POTCAR:    PAW_PBE B 06Sep2000                   
   SHA256 =  a32ced30f5ae56fd4d10b4325ff17eb3e4e38ee0f4288bc219fb012fddfa6e97 B/POTCAR              
   COPYR  = (c) Copyright 06Sep2000 Georg Kresse                                                    
   COPYR  = This file is part of the software VASP. Any use, copying, and all other rights are regul
   COPYR  = If you do not have a valid VASP license, you may not use, copy or distribute this file. 
   VRHFIN =B: s2p1                                                                                  
   LEXCH  = PE                                                                                      
   EATOM  =    71.1703 eV,    5.2309 Ry                                                             
                                                                                                    
   TITEL  = PAW_PBE B 06Sep2000                                                                     
   LULTRA =        F    use ultrasoft PP ?                                                          
   IUNSCR =        1    unscreen: 0-lin 1-nonlin 2-no                                               
   RPACOR =    1.200    partial core radius                                                         
   POMASS =   10.811; ZVAL   =    3.000    mass and valenz                                          
   RCORE  =    1.700    outmost cutoff radius                                                       
   RWIGS  =    1.710; RWIGS  =    0.905    wigner-seitz radius (au A)                               
   ENMAX  =  318.614; ENMIN  =  238.960 eV                                                          
   ICORE  =        2    local potential                                                             
   LCOR   =        T    correct aug charges                                                         
   LPAW   =        T    paw PP                                                                      
   EAUG   =  535.514                                                                                
   DEXC   =    0.000                                                                                
   RMAX   =    1.732    core radius for proj-oper                                                   
   RAUG   =    1.300    factor for augmentation sphere                                              
   RDEP   =    1.757    radius for radial grids                                                     
   RDEPT  =    1.436    core radius for aug-charge                                                  
                                                                                                    
   Atomic configuration                                                                             
    4 entries                                                                                       
     n  l   j            E        occ.                                                              
     1  0  0.50      -180.5896   2.0000                                                             
     2  0  0.50        -9.4431   2.0000                                                             
     2  1  0.50        -3.6068   1.0000                                                             
     3  2  1.50        -4.0817   0.0000                                                             
   Description                                                                                      
     l       E           TYP  RCUT    TYP  RCUT                                                     
     0     -9.4430752     23  1.500                                                                 
     0      0.8675899     23  1.500                                                                 
     1     -3.6067955     23  1.700                                                                 
     1      6.1086146     23  1.700                                                                 
     2     -4.0817478      7  1.700                                                                 
  local pseudopotential read in
  partial core-charges read in
  partial kinetic energy density read in
  atomic valenz-charges read in
  non local Contribution for L=           0  read in
    real space projection operators read in
  non local Contribution for L=           0  read in
    real space projection operators read in
  non local Contribution for L=           1  read in
    real space projection operators read in
  non local Contribution for L=           1  read in
    real space projection operators read in
    PAW grid and wavefunctions read in
 
   number of l-projection  operators is LMAX  =           4
   number of lm-projection operators is LMMAX =           8
 
 Optimization of the real space projectors (new method)

 maximal supplied QI-value         = 16.25
 optimisation between [QCUT,QGAM] = [  9.10, 18.20] = [ 23.19, 92.78] Ry 
 Optimized for a Real-space Cutoff    1.50 Angstroem

   l    n(q)    QCUT    max X(q) W(low)/X(q) W(high)/X(q)  e(spline) 
   0      8     9.101    12.277    0.37E-04    0.34E-04    0.22E-07
   0      8     9.101    11.419    0.55E-04    0.79E-04    0.37E-07
   1      8     9.101     4.010    0.10E-03    0.23E-04    0.81E-07
   1      8     9.101     6.182    0.31E-03    0.17E-03    0.18E-06
   2      7     9.101    47.177    0.44E-03    0.41E-03    0.22E-06
   2      7     9.101    42.437    0.43E-03    0.40E-03    0.21E-06
 Optimization of the real space projectors (new method)

 maximal supplied QI-value         = 19.84
 optimisation between [QCUT,QGAM] = [  9.13, 18.25] = [ 23.33, 93.32] Ry 
 Optimized for a Real-space Cutoff    1.26 Angstroem

   l    n(q)    QCUT    max X(q) W(low)/X(q) W(high)/X(q)  e(spline) 
   0      7     9.127   176.870    0.31E-03    0.39E-03    0.66E-07
   0      7     9.127   105.762    0.31E-03    0.39E-03    0.65E-07
   1      6     9.127    55.370    0.10E-03    0.67E-03    0.11E-06
   1      6     9.127    20.208    0.90E-04    0.60E-03    0.11E-06
 Optimization of the real space projectors (new method)

 maximal supplied QI-value         = 22.11
 optimisation between [QCUT,QGAM] = [  9.07, 18.13] = [ 23.01, 92.04] Ry 
 Optimized for a Real-space Cutoff    1.46 Angstroem

   l    n(q)    QCUT    max X(q) W(low)/X(q) W(high)/X(q)  e(spline) 
   0      8     9.065    53.033    0.38E-03    0.70E-03    0.20E-06
   0      8     9.065    34.740    0.38E-03    0.69E-03    0.20E-06
   1      7     9.065    30.949    0.34E-03    0.21E-03    0.23E-06
   1      7     9.065    19.518    0.31E-03    0.17E-03    0.22E-06
  PAW_PBE Ti_sv 26Sep2005               :
 energy of atom  1       EATOM=-1588.0892
 kinetic energy error for atom=    0.0422 (will be added to EATOM!!)
  PAW_PBE Al 04Jan2001                  :
 energy of atom  2       EATOM=  -53.5387
 kinetic energy error for atom=    0.0008 (will be added to EATOM!!)
  PAW_PBE B 06Sep2000                   :
 energy of atom  3       EATOM=  -71.1703
 kinetic energy error for atom=    0.0071 (will be added to EATOM!!)
 
 
 POSCAR: Ti Al  B
  positions in cartesian coordinates
  No initial velocities read in
 exchange correlation table for  LEXCH =        8
   RHO(1)=    0.500       N(1)  =     2000
   RHO(2)=  100.500       N(2)  =     4000
 


--------------------------------------------------------------------------------------------------------


 ion  position               nearest neighbor table
   1  0.440  0.437  0.579-  12 2.15   7 2.25  11 2.26  14 2.30  10 2.33  17 2.35   8 2.39   9 2.54
                             5 2.92
   2  0.450  0.533  0.461-  13 2.25  16 2.26  18 2.28  17 2.29  14 2.30   8 2.30  10 2.36  15 2.42

   3  0.570  0.587  0.558-  16 2.15  18 2.26  12 2.28   7 2.30  13 2.40   6 2.57
   4  0.567  0.403  0.399-  15 2.19   9 2.20   8 2.27   6 3.23   5 3.35
   5  0.571  0.384  0.577-   9 2.12  12 2.17   8 2.30   6 2.68   1 2.92   4 3.35
   6  0.638  0.486  0.524-  15 2.36  12 2.44   8 2.47   3 2.57   5 2.68   4 3.23
   7  0.477  0.540  0.601-  17 1.61  12 1.66  18 1.66   1 2.25   3 2.30
   8  0.526  0.456  0.496-  15 1.73  12 1.74   9 1.74   4 2.27   2 2.30   5 2.30   1 2.39   6 2.47

   9  0.507  0.372  0.490-  11 1.56   8 1.74   5 2.12   4 2.20   1 2.54
  10  0.379  0.442  0.475-  14 1.53  11 1.56   1 2.33   2 2.36
  11  0.439  0.397  0.466-  10 1.56   9 1.56   1 2.26
  12  0.533  0.484  0.583-   7 1.66   8 1.74   1 2.15   5 2.17   3 2.28   6 2.44
  13  0.544  0.582  0.434-  16 1.55  15 1.58   2 2.25   3 2.40
  14  0.362  0.500  0.525-  10 1.53  17 1.58   2 2.30   1 2.30
  15  0.562  0.506  0.433-  13 1.58   8 1.73   4 2.19   6 2.36   2 2.42
  16  0.504  0.628  0.483-  13 1.55  18 1.59   3 2.15   2 2.26
  17  0.405  0.548  0.571-  14 1.58   7 1.61  18 1.74   2 2.29   1 2.35
  18  0.463  0.607  0.551-  16 1.59   7 1.66  17 1.74   3 2.26   2 2.28
 
  LATTYP: Found a simple orthorhombic cell.
 ALAT       =    18.7770921638
 B/A-ratio  =     1.0747575963
 C/A-ratio  =     1.1044721563
  
  Lattice vectors:
  
 A1 = (   0.0000000000,   0.0000000000, -18.7770921638)
 A2 = (   0.0000000000,  20.1808224396,   0.0000000000)
 A3 = (  20.7387754714,   0.0000000000,   0.0000000000)


Analysis of symmetry for initial positions (statically):
=====================================================================
 Subroutine PRICEL returns:
 Original cell was already a primitive cell.
 

 Routine SETGRP: Setting up the symmetry group for a 
 simple orthorhombic supercell.


 Subroutine GETGRP returns: Found  1 space group operations
 (whereof  1 operations were pure point group operations)
 out of a pool of  8 trial point group operations.


The static configuration has the point symmetry C_1 .


Analysis of symmetry for dynamics (positions and initial velocities):
=====================================================================
 Subroutine PRICEL returns:
 Original cell was already a primitive cell.
 

 Routine SETGRP: Setting up the symmetry group for a 
 simple orthorhombic supercell.


 Subroutine GETGRP returns: Found  1 space group operations
 (whereof  1 operations were pure point group operations)
 out of a pool of  8 trial point group operations.


The dynamic configuration has the point symmetry C_1 .


 Subroutine INISYM returns: Found  1 space group operations
 (whereof  1 operations are pure point group operations),
 and found     1 'primitive' translations


----------------------------------------------------------------------------------------

                                     Primitive cell                                     

  volume of cell :    7858.6927

  direct lattice vectors                    reciprocal lattice vectors
    20.738775471  0.000000000  0.000000000     0.048218855  0.000000000  0.000000000
     0.000000000 20.180822440  0.000000000     0.000000000  0.049551994  0.000000000
     0.000000000  0.000000000 18.777092164     0.000000000  0.000000000  0.053256382

  length of vectors
    20.738775471 20.180822440 18.777092164     0.048218855  0.049551994  0.053256382

  position of ions in fractional coordinates (direct lattice)
     0.440322893  0.437031762  0.578677677
     0.450419008  0.532635587  0.460596090
     0.570367542  0.587348234  0.558368168
     0.567109785  0.402754447  0.399422868
     0.571360796  0.383680344  0.576851899
     0.638358590  0.485811866  0.523532177
     0.477180658  0.539964155  0.600577132
     0.525928561  0.455620287  0.495858792
     0.507302022  0.371639958  0.490127320
     0.378972214  0.442404251  0.475073061
     0.439384587  0.397000343  0.466450893
     0.533485322  0.483570412  0.582901315
     0.544428883  0.582463939  0.433800666
     0.361641410  0.499922490  0.524628234
     0.561772702  0.506470109  0.433047660
     0.503530232  0.628360042  0.482520656
     0.404930916  0.547552004  0.570819121
     0.463322773  0.606858988  0.551077118

  ion indices of the primitive-cell ions
   primitive index   ion index
                 1           1
                 2           2
                 3           3
                 4           4
                 5           5
                 6           6
                 7           7
                 8           8
                 9           9
                10          10
                11          11
                12          12
                13          13
                14          14
                15          15
                16          16
                17          17
                18          18

----------------------------------------------------------------------------------------

 
 
 KPOINTS: KPOINTS created by Atomic Simulation Env

Automatic generation of k-mesh.
 Grid dimensions read from file:
 generate k-points for:    1    1    1

 Generating k-lattice:

  Cartesian coordinates                     Fractional coordinates (reciprocal lattice)
     0.048218855  0.000000000  0.000000000     1.000000000  0.000000000  0.000000000
     0.000000000  0.049551994  0.000000000     0.000000000  1.000000000  0.000000000
     0.000000000  0.000000000  0.053256382     0.000000000  0.000000000  1.000000000

  Length of vectors
     0.048218855  0.049551994  0.053256382

  Shift w.r.t. Gamma in fractional coordinates (k-lattice)
     0.000000000  0.000000000  0.000000000

 
 Subroutine IBZKPT returns following result:
 ===========================================
 
 Found      1 irreducible k-points:
 
 Following reciprocal coordinates:
            Coordinates               Weight
  0.000000  0.000000  0.000000      1.000000
 
 Following cartesian coordinates:
            Coordinates               Weight
  0.000000  0.000000  0.000000      1.000000
 


--------------------------------------------------------------------------------------------------------




 Dimension of arrays:
   k-points           NKPTS =      1   k-points in BZ     NKDIM =      1   number of bands    NBANDS=     48
   number of dos      NEDOS =    301   number of ions     NIONS =     18
   non local maximal  LDIM  =      6   non local SUM 2l+1 LMDIM =     18
   total plane-waves  NPLWV = 725760
   max r-space proj   IRMAX =   1360   max aug-charges    IRDMAX=   3793
   dimension x,y,z NGX =    96 NGY =   90 NGZ =   84
   dimension x,y,z NGXF=   192 NGYF=  180 NGZF=  168
   support grid    NGXF=   192 NGYF=  180 NGZF=  168
   ions per type =               2   4  12
   NGX,Y,Z   is equivalent  to a cutoff of   7.70,  7.41,  7.44 a.u.
   NGXF,Y,Z  is equivalent  to a cutoff of  15.39, 14.83, 14.87 a.u.

 SYSTEM =  unknown system                          
 POSCAR =  Ti Al  B                                

 Startparameter for this run:
   NWRITE =      2    write-flag & timer
   PREC   = normal    normal or accurate (medium, high low for compatibility)
   ISTART =      0    job   : 0-new  1-cont  2-samecut
   ICHARG =      2    charge: 1-file 2-atom 10-const
   ISPIN  =      1    spin polarized calculation?
   LNONCOLLINEAR =      F non collinear calculations
   LSORBIT =      F    spin-orbit coupling
   INIWAV =      1    electr: 0-lowe 1-rand  2-diag
   LASPH  =      T    aspherical Exc in radial PAW
 Electronic Relaxation 1
   ENCUT  =  318.6 eV  23.42 Ry    4.84 a.u.  30.18 29.37 27.33*2*pi/ulx,y,z
   ENINI  =  318.6     initial cutoff
   ENAUG  =  535.5 eV  augmentation charge cutoff
   NELM   =     60;   NELMIN=  2; NELMDL= -5     # of ELM steps 
   EDIFF  = 0.1E-03   stopping-criterion for ELM
   LREAL  =      T    real-space projection
   NLSPLINE    = F    spline interpolate recip. space projectors
   LCOMPAT=      F    compatible to vasp.4.4
   GGA_COMPAT  = T    GGA compatible to vasp.4.4-vasp.4.6
   LMAXPAW     = -100 max onsite density
   LMAXMIX     =    2 max onsite mixed and CHGCAR
   VOSKOWN=      0    Vosko Wilk Nusair interpolation
   ROPT   =   -0.00050  -0.00050  -0.00050
 Ionic relaxation
   EDIFFG = 0.1E-02   stopping-criterion for IOM
   NSW    =    500    number of steps for IOM
   NBLOCK =      1;   KBLOCK =    500    inner block; outer block 
   IBRION =      2    ionic relax: 0-MD 1-quasi-New 2-CG
   NFREE  =      1    steps in history (QN), initial steepest desc. (CG)
   ISIF   =      2    stress and relaxation
   IWAVPR =     11    prediction:  0-non 1-charg 2-wave 3-comb
   ISYM   =      2    0-nonsym 1-usesym 2-fastsym
   LCORR  =      T    Harris-Foulkes like correction to forces

   POTIM  = 0.5000    time-step for ionic-motion
   TEIN   =    0.0    initial temperature
   TEBEG  =    0.0;   TEEND  =   0.0 temperature during run
   SMASS  =  -3.00    Nose mass-parameter (am)
   estimated Nose-frequenzy (Omega)   =  0.10E-29 period in steps = 0.13E+47 mass=  -0.983E-26a.u.
   SCALEE = 1.0000    scale energy and forces
   NPACO  =    256;   APACO  = 10.0  distance and # of slots for P.C.
   PSTRESS=    0.0 pullay stress

  Mass of Ions in am
   POMASS =  47.88 26.98 10.81
  Ionic Valenz
   ZVAL   =  12.00  3.00  3.00
  Atomic Wigner-Seitz radii
   RWIGS  =  -1.00 -1.00 -1.00
  virtual crystal weights 
   VCA    =   1.00  1.00  1.00
   NELECT =      72.0000    total number of electrons
   NUPDOWN=      -1.0000    fix difference up-down

 DOS related values:
   EMIN   =  10.00;   EMAX   =-10.00  energy-range for DOS
   EFERMI =   0.00;   METHOD = LEGACY      
   ISMEAR =     0;   SIGMA  =   0.10  broadening in eV -4-tet -1-fermi 0-gaus

 Electronic relaxation 2 (details)
   IALGO  =     38    algorithm
   LDIAG  =      T    sub-space diagonalisation (order eigenvalues)
   LSUBROT=      F    optimize rotation matrix (better conditioning)
   TURBO    =      0    0=normal 1=particle mesh
   IRESTART =      0    0=no restart 2=restart with 2 vectors
   NREBOOT  =      0    no. of reboots
   NMIN     =      0    reboot dimension
   EREF     =   0.00    reference energy to select bands
   IMIX   =      4    mixing-type and parameters
     AMIX     =   0.40;   BMIX     =  1.00
     AMIX_MAG =   1.60;   BMIX_MAG =  1.00
     AMIN     =   0.10
     WC   =   100.;   INIMIX=   1;  MIXPRE=   1;  MAXMIX= -45

 Intra band minimization:
   WEIMIN = 0.0010     energy-eigenvalue tresh-hold
   EBREAK =  0.52E-06  absolut break condition
   DEPER  =   0.30     relativ break condition  

   TIME   =   0.40     timestep for ELM

  volume/ion in A,a.u.               =     436.59      2946.28
  Fermi-wavevector in a.u.,A,eV,Ry     =   0.342559  0.647343  1.596600  0.117347
  Thomas-Fermi vector in A             =   1.248020
 
 Write flags
   LWAVE        =      F    write WAVECAR
   LDOWNSAMPLE  =      F    k-point downsampling of WAVECAR
   LCHARG       =      F    write CHGCAR
   LVTOT        =      F    write LOCPOT, total local potential
   LVHAR        =      F    write LOCPOT, Hartree potential only
   LELF         =      F    write electronic localiz. function (ELF)
   LORBIT       =     10    0 simple, 1 ext, 2 COOP (PROOUT), +10 PAW based schemes


 Dipole corrections
   LMONO  =      F    monopole corrections only (constant potential shift)
   LDIPOL =      F    correct potential (dipole corrections)
   IDIPOL =      0    1-x, 2-y, 3-z, 4-all directions 
   EPSILON=  1.0000000 bulk dielectric constant

 Exchange correlation treatment:
   GGA     =    PE    GGA type
   LEXCH   =     8    internal setting for exchange type
   LIBXC   =     F    Libxc                    
   VOSKOWN =     0    Vosko Wilk Nusair interpolation
   LHFCALC =     F    Hartree Fock is set to
   LHFONE  =     F    Hartree Fock one center treatment
   AEXX    =    0.0000 exact exchange contribution

 Linear response parameters
   LEPSILON=     F    determine dielectric tensor
   LRPA    =     F    only Hartree local field effects (RPA)
   LNABLA  =     F    use nabla operator in PAW spheres
   LVEL    =     F    velocity operator in full k-point grid
   CSHIFT  =0.1000    complex shift for real part using Kramers Kronig
   OMEGAMAX=  -1.0    maximum frequency
   DEG_THRESHOLD= 0.2000000E-02 threshold for treating states as degnerate
   RTIME   =   -0.100 relaxation time in fs
  (WPLASMAI=    0.000 imaginary part of plasma frequency in eV, 0.658/RTIME)
   DFIELD  = 0.0000000 0.0000000 0.0000000 field for delta impulse in time
 
  Optional k-point grid parameters
   LKPOINTS_OPT  =     F    use optional k-point grid
   KPOINTS_OPT_MODE=     1    mode for optional k-point grid
 
 Orbital magnetization related:
   ORBITALMAG=     F  switch on orbital magnetization
   LCHIMAG   =     F  perturbation theory with respect to B field
   DQ        =  0.001000  dq finite difference perturbation B field
   LLRAUG    =     F  two centre corrections for induced B field
   LBONE     =     F  B-component reconstruction in AE one-centre
   LVGVCALC  =     T  calculate vGv susceptibility
   LVGVAPPL  =     F  apply vGv susceptibility instead of pGv for G=0

 Random number generation:
   RANDOM_GENERATOR = DEFAULT
   PCG_SEED         = not used


--------------------------------------------------------------------------------------------------------


 conjugate gradient relaxation of ions
 charge density and potential will be updated during run
 non-spin polarized calculation
 Variant of blocked Davidson
 Davidson routine will perform the subspace rotation
 perform sub-space diagonalisation
    after iterative eigenvector-optimisation
 modified Broyden-mixing scheme, WC =      100.0
 initial mixing is a Kerker type mixing with AMIX =  0.4000 and BMIX =      1.0000
 Hartree-type preconditioning will be used
 using additional bands           12
 real space projection scheme for non local part
 use partial core corrections
 calculate Harris-corrections to forces 
   (improved forces if not selfconsistent)
 use gradient corrections 
 use of overlap-Matrix (Vanderbilt PP)
 Gauss-broadening in eV      SIGMA  =   0.10


--------------------------------------------------------------------------------------------------------


  energy-cutoff  :      318.61
  volume of cell :     7858.69
      direct lattice vectors                 reciprocal lattice vectors
    20.738775471  0.000000000  0.000000000     0.048218855  0.000000000  0.000000000
     0.000000000 20.180822440  0.000000000     0.000000000  0.049551994  0.000000000
     0.000000000  0.000000000 18.777092164     0.000000000  0.000000000  0.053256382

  length of vectors
    20.738775471 20.180822440 18.777092164     0.048218855  0.049551994  0.053256382


 
 k-points in units of 2pi/SCALE and weight: KPOINTS created by Atomic Simulation Env
   0.00000000  0.00000000  0.00000000       1.000
 
 k-points in reciprocal lattice and weights: KPOINTS created by Atomic Simulation Env
   0.00000000  0.00000000  0.00000000       1.000
 
 position of ions in fractional coordinates (direct lattice) 
   0.44032289  0.43703176  0.57867768
   0.45041901  0.53263559  0.46059609
   0.57036754  0.58734823  0.55836817
   0.56710979  0.40275445  0.39942287
   0.57136080  0.38368034  0.57685190
   0.63835859  0.48581187  0.52353218
   0.47718066  0.53996415  0.60057713
   0.52592856  0.45562029  0.49585879
   0.50730202  0.37163996  0.49012732
   0.37897221  0.44240425  0.47507306
   0.43938459  0.39700034  0.46645089
   0.53348532  0.48357041  0.58290131
   0.54442888  0.58246394  0.43380067
   0.36164141  0.49992249  0.52462823
   0.56177270  0.50647011  0.43304766
   0.50353023  0.62836004  0.48252066
   0.40493092  0.54755200  0.57081912
   0.46332277  0.60685899  0.55107712
 
 position of ions in cartesian coordinates  (Angst):
   9.13175762  8.81966039 10.86588408
   9.34113867 10.74902420  8.64865524
  11.82872439 11.85317041 10.48453054
  11.76116251  8.12791598  7.50000000
  11.84932326  7.74298489 10.83160127
  13.23877547  9.80408300  9.83041194
   9.89614253 10.89692073 11.27709216
  10.90711435  9.19479211  9.31078623
  10.52082274  7.50000000  9.20316586
   7.85941966  8.92808164  8.92049066
   9.11229830  8.01179344  8.75859141
  11.06383231  9.75884863 10.94519171
  11.29078837 11.75460132  8.14551508
   7.50000000 10.08884700  9.85099271
  11.65047794 10.22098334  8.13137583
  10.44260042 12.68082244  9.06033483
   8.39777136 11.05004977 10.71832324
   9.60874696 12.24691349 10.34762583
 


--------------------------------------------------------------------------------------------------------


 k-point   1 :   0.0000 0.0000 0.0000  plane waves:  101433

 maximum and minimum number of plane-waves per node :     12689    12672

 maximum number of plane-waves:    101433
 maximum index in each direction: 
   IXMAX=   30   IYMAX=   29   IZMAX=   27
   IXMIN=  -30   IYMIN=  -29   IZMIN=  -27


 real space projection operators:
  total allocation   :       1413.86 KBytes
  max/ min on nodes  :        185.56        168.34


 parallel 3D FFT for wavefunctions:
    minimum data exchange during FFTs selected (reduces bandwidth)
 parallel 3D FFT for charge:
    minimum data exchange during FFTs selected (reduces bandwidth)


 total amount of memory used by VASP MPI-rank0    57449. kBytes
=======================================================================

   base      :      30000. kBytes
   nonlr-proj:        628. kBytes
   fftplans  :       8954. kBytes
   grid      :      15378. kBytes
   one-center:         46. kBytes
   wavefun   :       2443. kBytes
 
     INWAV:  cpu time      0.0000: real time      0.0000
 Broyden mixing: mesh for mixing (old mesh)
   NGX = 61   NGY = 59   NGZ = 55
  (NGX  =192   NGY  =180   NGZ  =168)
  gives a total of 197945 points

 initial charge density was supplied:
 charge density of overlapping atoms calculated
 number of electron      72.0000000 magnetization 
 keeping initial charge density in first step


--------------------------------------------------------------------------------------------------------


 Maximum index for non-local projection operator          181
 Maximum index for augmentation-charges          187 (set IRDMAX)


--------------------------------------------------------------------------------------------------------


 First call to EWALD:  gamma=   0.089
 Maximum number of real-space cells 3x 3x 3
 Maximum number of reciprocal cells 3x 3x 3

    FEWALD:  cpu time      0.0464: real time      0.0864


--------------------------------------- Ionic step        1  -------------------------------------------




--------------------------------------- Iteration      1(   1)  ---------------------------------------


    POTLOK:  cpu time      0.2362: real time      0.4397
    SETDIJ:  cpu time      0.1551: real time      0.2910
     EDDAV:  cpu time      3.2413: real time      6.0942
       DOS:  cpu time      0.1249: real time      0.2326
    --------------------------------------------
      LOOP:  cpu time      3.7575: real time      7.0575

 eigenvalue-minimisations  :   144
 total energy-change (2. order) : 0.3140552E+03  (-0.1902574E+04)
 number of electron      72.0000000 magnetization 
 augmentation part       72.0000000 magnetization 

 Free energy of the ion-electron system (eV)
  ---------------------------------------------------
  alpha Z        PSCENC =         3.99825575
  Ewald energy   TEWEN  =      6468.01856133
  -Hartree energ DENC   =     -9686.15123294
  -exchange      EXHF   =         0.00000000
  -V(xc)+E(xc)   XCENC  =        93.80461343
  PAW double counting   =      3315.92939605    -3138.67763419
  entropy T*S    EENTRO =        -0.08316735
  eigenvalues    EBANDS =      -986.98704504
  atomic energy  EATOM  =      4244.20348233
  Solvation  Ediel_sol  =         0.00000000
  ---------------------------------------------------
  free energy    TOTEN  =       314.05522936 eV

  energy without entropy =      314.13839671  energy(sigma->0) =      314.09681304


--------------------------------------------------------------------------------------------------------




--------------------------------------- Iteration      1(   2)  ---------------------------------------


     EDDAV:  cpu time      3.3148: real time      6.2675
       DOS:  cpu time      0.0842: real time      0.1567
    --------------------------------------------
      LOOP:  cpu time      3.3990: real time      6.4242

 eigenvalue-minimisations  :   152
 total energy-change (2. order) :-0.3183880E+03  (-0.3086333E+03)
 number of electron      72.0000000 magnetization 
 augmentation part       72.0000000 magnetization 

 Free energy of the ion-electron system (eV)
  ---------------------------------------------------
  alpha Z        PSCENC =         3.99825575
  Ewald energy   TEWEN  =      6468.01856133
  -Hartree energ DENC   =     -9686.15123294
  -exchange      EXHF   =         0.00000000
  -V(xc)+E(xc)   XCENC  =        93.80461343
  PAW double counting   =      3315.92939605    -3138.67763419
  entropy T*S    EENTRO =        -0.00000047
  eigenvalues    EBANDS =     -1305.45822063
  atomic energy  EATOM  =      4244.20348233
  Solvation  Ediel_sol  =         0.00000000
  ---------------------------------------------------
  free energy    TOTEN  =        -4.33277934 eV

  energy without entropy =       -4.33277887  energy(sigma->0) =       -4.33277911


--------------------------------------------------------------------------------------------------------




--------------------------------------- Iteration      1(   3)  ---------------------------------------


     EDDAV:  cpu time      2.9535: real time      5.6441
       DOS:  cpu time      0.0424: real time      0.0827
    --------------------------------------------
      LOOP:  cpu time      2.9959: real time      5.7268

 eigenvalue-minimisations  :   128
 total energy-change (2. order) :-0.1084268E+03  (-0.1062682E+03)
 number of electron      72.0000000 magnetization 
 augmentation part       72.0000000 magnetization 

 Free energy of the ion-electron system (eV)
  ---------------------------------------------------
  alpha Z        PSCENC =         3.99825575
  Ewald energy   TEWEN  =      6468.01856133
  -Hartree energ DENC   =     -9686.15123294
  -exchange      EXHF   =         0.00000000
  -V(xc)+E(xc)   XCENC  =        93.80461343
  PAW double counting   =      3315.92939605    -3138.67763419
  entropy T*S    EENTRO =        -0.00000000
  eigenvalues    EBANDS =     -1413.88505094
  atomic energy  EATOM  =      4244.20348233
  Solvation  Ediel_sol  =         0.00000000
  ---------------------------------------------------
  free energy    TOTEN  =      -112.75960918 eV

  energy without entropy =     -112.75960918  energy(sigma->0) =     -112.75960918


--------------------------------------------------------------------------------------------------------




--------------------------------------- Iteration      1(   4)  ---------------------------------------


     EDDAV:  cpu time      3.0092: real time      5.6525
       DOS:  cpu time      0.0878: real time      0.1660
    --------------------------------------------
      LOOP:  cpu time      3.0970: real time      5.8185

 eigenvalue-minimisations  :   128
 total energy-change (2. order) :-0.1742795E+02  (-0.1688625E+02)
 number of electron      72.0000000 magnetization 
 augmentation part       72.0000000 magnetization 

 Free energy of the ion-electron system (eV)
  ---------------------------------------------------
  alpha Z        PSCENC =         3.99825575
  Ewald energy   TEWEN  =      6468.01856133
  -Hartree energ DENC   =     -9686.15123294
  -exchange      EXHF   =         0.00000000
  -V(xc)+E(xc)   XCENC  =        93.80461343
  PAW double counting   =      3315.92939605    -3138.67763419
  entropy T*S    EENTRO =        -0.00000003
  eigenvalues    EBANDS =     -1431.31299600
  atomic energy  EATOM  =      4244.20348233
  Solvation  Ediel_sol  =         0.00000000
  ---------------------------------------------------
  free energy    TOTEN  =      -130.18755427 eV

  energy without entropy =     -130.18755425  energy(sigma->0) =     -130.18755426


--------------------------------------------------------------------------------------------------------




--------------------------------------- Iteration      1(   5)  ---------------------------------------


     EDDAV:  cpu time      3.1480: real time      5.9200
       DOS:  cpu time      0.0803: real time      0.1488
    CHARGE:  cpu time      0.0991: real time      0.1850
    MIXING:  cpu time      0.0442: real time      0.0843
    --------------------------------------------
      LOOP:  cpu time      3.3716: real time      6.3381

 eigenvalue-minimisations  :   144
 total energy-change (2. order) :-0.9652545E+00  (-0.9572744E+00)
 number of electron      72.0000045 magnetization 
 augmentation part        6.6864981 magnetization 

 Broyden mixing:
  rms(total) = 0.26742E+01    rms(broyden)= 0.26739E+01
  rms(prec ) = 0.30964E+01
  weight for this iteration     100.00

 Free energy of the ion-electron system (eV)
  ---------------------------------------------------
  alpha Z        PSCENC =         3.99825575
  Ewald energy   TEWEN  =      6468.01856133
  -Hartree energ DENC   =     -9686.15123294
  -exchange      EXHF   =         0.00000000
  -V(xc)+E(xc)   XCENC  =        93.80461343
  PAW double counting   =      3315.92939605    -3138.67763419
  entropy T*S    EENTRO =        -0.00000031
  eigenvalues    EBANDS =     -1432.27825024
  atomic energy  EATOM  =      4244.20348233
  Solvation  Ediel_sol  =         0.00000000
  ---------------------------------------------------
  free energy    TOTEN  =      -131.15280879 eV

  energy without entropy =     -131.15280848  energy(sigma->0) =     -131.15280864


--------------------------------------------------------------------------------------------------------




--------------------------------------- Iteration      1(   6)  ---------------------------------------


    POTLOK:  cpu time      0.2216: real time      0.4183
    SETDIJ:  cpu time      0.1526: real time      0.2848
     EDDAV:  cpu time      3.2073: real time      6.0271
       DOS:  cpu time      0.0809: real time      0.1535
    CHARGE:  cpu time      0.1526: real time      0.2868
    MIXING:  cpu time      0.0633: real time      0.1190
    --------------------------------------------
      LOOP:  cpu time      3.8783: real time      7.2895

 eigenvalue-minimisations  :   144
 total energy-change (2. order) : 0.2862111E+02  (-0.1719719E+02)
 number of electron      72.0000073 magnetization 
 augmentation part        9.6074253 magnetization 

 Broyden mixing:
  rms(total) = 0.17909E+01    rms(broyden)= 0.17903E+01
  rms(prec ) = 0.21132E+01
  weight for this iteration     100.00

 eigenvalues of (default mixing * dielectric matrix)
  average eigenvalue GAMMA=   0.6520
  0.6520

 Free energy of the ion-electron system (eV)
  ---------------------------------------------------
  alpha Z        PSCENC =         3.99825575
  Ewald energy   TEWEN  =      6468.01856133
  -Hartree energ DENC   =     -9709.33175754
  -exchange      EXHF   =         0.00000000
  -V(xc)+E(xc)   XCENC  =        93.11678937
  PAW double counting   =      4311.58401489    -4141.05662666
  entropy T*S    EENTRO =        -0.00000054
  eigenvalues    EBANDS =     -1373.06441554
  atomic energy  EATOM  =      4244.20348233
  Solvation  Ediel_sol  =         0.00000000
  ---------------------------------------------------
  free energy    TOTEN  =      -102.53169662 eV

  energy without entropy =     -102.53169608  energy(sigma->0) =     -102.53169635


--------------------------------------------------------------------------------------------------------




--------------------------------------- Iteration      1(   7)  ---------------------------------------


    POTLOK:  cpu time      0.2181: real time      0.4080
    SETDIJ:  cpu time      0.1467: real time      0.2780
     EDDAV:  cpu time      3.2244: real time      6.0635
       DOS:  cpu time      0.0250: real time      0.0459
    CHARGE:  cpu time      0.1201: real time      0.2243
    MIXING:  cpu time      0.0791: real time      0.1481
    --------------------------------------------
      LOOP:  cpu time      3.8133: real time      7.1678

 eigenvalue-minimisations  :   136
 total energy-change (2. order) : 0.1115491E+01  (-0.9760953E+01)
 number of electron      72.0000049 magnetization 
 augmentation part        6.6433737 magnetization 

 Broyden mixing:
  rms(total) = 0.10387E+01    rms(broyden)= 0.10382E+01
  rms(prec ) = 0.12057E+01
  weight for this iteration     100.00

 eigenvalues of (default mixing * dielectric matrix)
  average eigenvalue GAMMA=   0.8893
  1.3338  0.4449

 Free energy of the ion-electron system (eV)
  ---------------------------------------------------
  alpha Z        PSCENC =         3.99825575
  Ewald energy   TEWEN  =      6468.01856133
  -Hartree energ DENC   =     -9841.82863407
  -exchange      EXHF   =         0.00000000
  -V(xc)+E(xc)   XCENC  =        96.61664710
  PAW double counting   =      4945.31182733    -4774.24069850
  entropy T*S    EENTRO =        -0.00000000
  eigenvalues    EBANDS =     -1243.49564658
  atomic energy  EATOM  =      4244.20348233
  Solvation  Ediel_sol  =         0.00000000
  ---------------------------------------------------
  free energy    TOTEN  =      -101.41620531 eV

  energy without entropy =     -101.41620531  energy(sigma->0) =     -101.41620531


--------------------------------------------------------------------------------------------------------




--------------------------------------- Iteration      1(   8)  ---------------------------------------


    POTLOK:  cpu time      0.2579: real time      0.4851
    SETDIJ:  cpu time      0.1664: real time      0.3136
     EDDAV:  cpu time      3.1183: real time      5.8568
       DOS:  cpu time      0.0413: real time      0.0773
    CHARGE:  cpu time      0.1281: real time      0.2428
    MIXING:  cpu time      0.0729: real time      0.1352
    --------------------------------------------
      LOOP:  cpu time      3.7848: real time      7.1107

 eigenvalue-minimisations  :   128
 total energy-change (2. order) : 0.2970368E+01  (-0.8365661E+00)
 number of electron      72.0000055 magnetization 
 augmentation part        7.0807492 magnetization 

 Broyden mixing:
  rms(total) = 0.57265E+00    rms(broyden)= 0.57260E+00
  rms(prec ) = 0.65493E+00
  weight for this iteration     100.00

 eigenvalues of (default mixing * dielectric matrix)
  average eigenvalue GAMMA=   1.1287
  0.4955  0.8720  2.0187

 Free energy of the ion-electron system (eV)
  ---------------------------------------------------
  alpha Z        PSCENC =         3.99825575
  Ewald energy   TEWEN  =      6468.01856133
  -Hartree energ DENC   =     -9830.87705345
  -exchange      EXHF   =         0.00000000
  -V(xc)+E(xc)   XCENC  =        96.56374130
  PAW double counting   =      5613.68388600    -5442.61006271
  entropy T*S    EENTRO =        -0.00000000
  eigenvalues    EBANDS =     -1251.42664794
  atomic energy  EATOM  =      4244.20348233
  Solvation  Ediel_sol  =         0.00000000
  ---------------------------------------------------
  free energy    TOTEN  =       -98.44583738 eV

  energy without entropy =      -98.44583738  energy(sigma->0) =      -98.44583738


--------------------------------------------------------------------------------------------------------




--------------------------------------- Iteration      1(   9)  ---------------------------------------


    POTLOK:  cpu time      0.2122: real time      0.4065
    SETDIJ:  cpu time      0.1586: real time      0.2905
     EDDAV:  cpu time      3.5884: real time      6.1550
       DOS:  cpu time      0.0405: real time      0.0805
    CHARGE:  cpu time      0.1091: real time      0.2054
    MIXING:  cpu time      0.0938: real time      0.1714
    --------------------------------------------
      LOOP:  cpu time      4.2025: real time      7.3094

 eigenvalue-minimisations  :   144
 total energy-change (2. order) : 0.4688397E+00  (-0.9087853E+00)
 number of electron      72.0000062 magnetization 
 augmentation part        7.6720995 magnetization 

 Broyden mixing:
  rms(total) = 0.59250E+00    rms(broyden)= 0.59216E+00
  rms(prec ) = 0.69546E+00
  weight for this iteration     100.00

 eigenvalues of (default mixing * dielectric matrix)
  average eigenvalue GAMMA=   0.9813
  2.1801  0.9594  0.4360  0.3499

 Free energy of the ion-electron system (eV)
  ---------------------------------------------------
  alpha Z        PSCENC =         3.99825575
  Ewald energy   TEWEN  =      6468.01856133
  -Hartree energ DENC   =     -9847.78942070
  -exchange      EXHF   =         0.00000000
  -V(xc)+E(xc)   XCENC  =        96.97330165
  PAW double counting   =      6323.03781993    -6152.15991588
  entropy T*S    EENTRO =        -0.00000000
  eigenvalues    EBANDS =     -1234.25908211
  atomic energy  EATOM  =      4244.20348233
  Solvation  Ediel_sol  =         0.00000000
  ---------------------------------------------------
  free energy    TOTEN  =       -97.97699770 eV

  energy without entropy =      -97.97699770  energy(sigma->0) =      -97.97699770


--------------------------------------------------------------------------------------------------------




--------------------------------------- Iteration      1(  10)  ---------------------------------------


    POTLOK:  cpu time      0.2236: real time      0.4235
    SETDIJ:  cpu time      0.1560: real time      0.2907
     EDDAV:  cpu time      2.9250: real time      5.4976
       DOS:  cpu time      0.0508: real time      0.1011
    CHARGE:  cpu time      0.0928: real time      0.1665
    MIXING:  cpu time      0.0813: real time      0.1552
    --------------------------------------------
      LOOP:  cpu time      3.5295: real time      6.6346

 eigenvalue-minimisations  :   136
 total energy-change (2. order) : 0.2748277E+00  (-0.2452332E+00)
 number of electron      72.0000063 magnetization 
 augmentation part        7.5164561 magnetization 

 Broyden mixing:
  rms(total) = 0.33967E+00    rms(broyden)= 0.33957E+00
  rms(prec ) = 0.38978E+00
  weight for this iteration     100.00

 eigenvalues of (default mixing * dielectric matrix)
  average eigenvalue GAMMA=   0.9713
  2.1039  1.3423  0.5520  0.5520  0.3062

 Free energy of the ion-electron system (eV)
  ---------------------------------------------------
  alpha Z        PSCENC =         3.99825575
  Ewald energy   TEWEN  =      6468.01856133
  -Hartree energ DENC   =     -9855.08478477
  -exchange      EXHF   =         0.00000000
  -V(xc)+E(xc)   XCENC  =        97.21183317
  PAW double counting   =      6455.72581309    -6283.93209928
  entropy T*S    EENTRO =        -0.00000000
  eigenvalues    EBANDS =     -1227.84323160
  atomic energy  EATOM  =      4244.20348233
  Solvation  Ediel_sol  =         0.00000000
  ---------------------------------------------------
  free energy    TOTEN  =       -97.70216998 eV

  energy without entropy =      -97.70216998  energy(sigma->0) =      -97.70216998


--------------------------------------------------------------------------------------------------------




--------------------------------------- Iteration      1(  11)  ---------------------------------------


    POTLOK:  cpu time      0.2432: real time      0.4602
    SETDIJ:  cpu time      0.1549: real time      0.2884
     EDDAV:  cpu time      2.8499: real time      5.3476
       DOS:  cpu time      0.0313: real time      0.0593
    CHARGE:  cpu time      0.0988: real time      0.1861
    MIXING:  cpu time      0.0904: real time      0.1728
    --------------------------------------------
      LOOP:  cpu time      3.4685: real time      6.5144

 eigenvalue-minimisations  :   136
 total energy-change (2. order) : 0.1483123E+00  (-0.8757547E-01)
 number of electron      72.0000059 magnetization 
 augmentation part        7.2256563 magnetization 

 Broyden mixing:
  rms(total) = 0.84756E-01    rms(broyden)= 0.84606E-01
  rms(prec ) = 0.10600E+00
  weight for this iteration     100.00

 eigenvalues of (default mixing * dielectric matrix)
  average eigenvalue GAMMA=   1.1333
  2.5800  1.3808  1.3808  0.5817  0.5817  0.2949

 Free energy of the ion-electron system (eV)
  ---------------------------------------------------
  alpha Z        PSCENC =         3.99825575
  Ewald energy   TEWEN  =      6468.01856133
  -Hartree energ DENC   =     -9870.10131348
  -exchange      EXHF   =         0.00000000
  -V(xc)+E(xc)   XCENC  =        97.61433570
  PAW double counting   =      6498.13862512    -6323.66929843
  entropy T*S    EENTRO =        -0.00000000
  eigenvalues    EBANDS =     -1215.75650599
  atomic energy  EATOM  =      4244.20348233
  Solvation  Ediel_sol  =         0.00000000
  ---------------------------------------------------
  free energy    TOTEN  =       -97.55385767 eV

  energy without entropy =      -97.55385767  energy(sigma->0) =      -97.55385767


--------------------------------------------------------------------------------------------------------




--------------------------------------- Iteration      1(  12)  ---------------------------------------


    POTLOK:  cpu time      0.2404: real time      0.4518
    SETDIJ:  cpu time      0.1558: real time      0.2919
     EDDAV:  cpu time      2.7946: real time      5.2576
       DOS:  cpu time      0.0430: real time      0.0834
    CHARGE:  cpu time      0.1154: real time      0.2161
    MIXING:  cpu time      0.0890: real time      0.1666
    --------------------------------------------
      LOOP:  cpu time      3.4382: real time      6.4676

 eigenvalue-minimisations  :   128
 total energy-change (2. order) : 0.1733780E-01  (-0.1306469E-01)
 number of electron      72.0000060 magnetization 
 augmentation part        7.3229854 magnetization 

 Broyden mixing:
  rms(total) = 0.75283E-01    rms(broyden)= 0.75271E-01
  rms(prec ) = 0.94864E-01
  weight for this iteration     100.00

 eigenvalues of (default mixing * dielectric matrix)
  average eigenvalue GAMMA=   1.1362
  2.1799  2.1799  1.0861  1.0861  0.5635  0.5635  0.2942

 Free energy of the ion-electron system (eV)
  ---------------------------------------------------
  alpha Z        PSCENC =         3.99825575
  Ewald energy   TEWEN  =      6468.01856133
  -Hartree energ DENC   =     -9883.90224594
  -exchange      EXHF   =         0.00000000
  -V(xc)+E(xc)   XCENC  =        97.94017229
  PAW double counting   =      6606.07255366    -6428.99207453
  entropy T*S    EENTRO =        -0.00000000
  eigenvalues    EBANDS =     -1204.87522476
  atomic energy  EATOM  =      4244.20348233
  Solvation  Ediel_sol  =         0.00000000
  ---------------------------------------------------
  free energy    TOTEN  =       -97.53651987 eV

  energy without entropy =      -97.53651987  energy(sigma->0) =      -97.53651987


--------------------------------------------------------------------------------------------------------




--------------------------------------- Iteration      1(  13)  ---------------------------------------


    POTLOK:  cpu time      0.2417: real time      0.4720
    SETDIJ:  cpu time      0.1553: real time      0.2942
     EDDAV:  cpu time      2.7046: real time      5.0794
       DOS:  cpu time      0.0262: real time      0.0505
    CHARGE:  cpu time      0.1161: real time      0.2134
    MIXING:  cpu time      0.0806: real time      0.1579
    --------------------------------------------
      LOOP:  cpu time      3.3246: real time      6.2675

 eigenvalue-minimisations  :   128
 total energy-change (2. order) : 0.9036069E-02  (-0.5324238E-02)
 number of electron      72.0000059 magnetization 
 augmentation part        7.2419242 magnetization 

 Broyden mixing:
  rms(total) = 0.21913E-01    rms(broyden)= 0.21857E-01
  rms(prec ) = 0.39401E-01
  weight for this iteration     100.00

 eigenvalues of (default mixing * dielectric matrix)
  average eigenvalue GAMMA=   1.2393
  2.4921  2.4921  1.3059  1.3059  0.8980  0.5632  0.5632  0.2941

 Free energy of the ion-electron system (eV)
  ---------------------------------------------------
  alpha Z        PSCENC =         3.99825575
  Ewald energy   TEWEN  =      6468.01856133
  -Hartree energ DENC   =     -9891.66718352
  -exchange      EXHF   =         0.00000000
  -V(xc)+E(xc)   XCENC  =        98.09826182
  PAW double counting   =      6577.75639458    -6400.16075957
  entropy T*S    EENTRO =        -0.00000000
  eigenvalues    EBANDS =     -1197.77449651
  atomic energy  EATOM  =      4244.20348233
  Solvation  Ediel_sol  =         0.00000000
  ---------------------------------------------------
  free energy    TOTEN  =       -97.52748380 eV

  energy without entropy =      -97.52748380  energy(sigma->0) =      -97.52748380


--------------------------------------------------------------------------------------------------------




--------------------------------------- Iteration      1(  14)  ---------------------------------------


    POTLOK:  cpu time      0.2360: real time      0.4384
    SETDIJ:  cpu time      0.1463: real time      0.2813
     EDDAV:  cpu time      2.7080: real time      5.0839
       DOS:  cpu time      0.0576: real time      0.1118
    CHARGE:  cpu time      0.0807: real time      0.1508
    MIXING:  cpu time      0.1022: real time      0.1905
    --------------------------------------------
      LOOP:  cpu time      3.3309: real time      6.2568

 eigenvalue-minimisations  :   128
 total energy-change (2. order) :-0.3222832E-02  (-0.1559044E-02)
 number of electron      72.0000059 magnetization 
 augmentation part        7.2443541 magnetization 

 Broyden mixing:
  rms(total) = 0.23781E-01    rms(broyden)= 0.23767E-01
  rms(prec ) = 0.31679E-01
  weight for this iteration     100.00

 eigenvalues of (default mixing * dielectric matrix)
  average eigenvalue GAMMA=   1.3584
  2.9444  2.9444  1.5228  1.5228  0.9336  0.9336  0.5649  0.5649  0.2941

 Free energy of the ion-electron system (eV)
  ---------------------------------------------------
  alpha Z        PSCENC =         3.99825575
  Ewald energy   TEWEN  =      6468.01856133
  -Hartree energ DENC   =     -9901.45723568
  -exchange      EXHF   =         0.00000000
  -V(xc)+E(xc)   XCENC  =        98.26376100
  PAW double counting   =      6554.28344342    -6376.40254240
  entropy T*S    EENTRO =        -0.00000000
  eigenvalues    EBANDS =     -1188.43843238
  atomic energy  EATOM  =      4244.20348233
  Solvation  Ediel_sol  =         0.00000000
  ---------------------------------------------------
  free energy    TOTEN  =       -97.53070663 eV

  energy without entropy =      -97.53070663  energy(sigma->0) =      -97.53070663


--------------------------------------------------------------------------------------------------------




--------------------------------------- Iteration      1(  15)  ---------------------------------------


    POTLOK:  cpu time      0.2366: real time      0.4457
    SETDIJ:  cpu time      0.1650: real time      0.3123
     EDDAV:  cpu time      2.3978: real time      4.5096
       DOS:  cpu time      0.0025: real time      0.0075
    CHARGE:  cpu time      0.1591: real time      0.3000
    MIXING:  cpu time      0.1232: real time      0.2252
    --------------------------------------------
      LOOP:  cpu time      3.0841: real time      5.8002

 eigenvalue-minimisations  :   112
 total energy-change (2. order) :-0.6260088E-02  (-0.5331037E-03)
 number of electron      72.0000059 magnetization 
 augmentation part        7.2490299 magnetization 

 Broyden mixing:
  rms(total) = 0.15072E-01    rms(broyden)= 0.15071E-01
  rms(prec ) = 0.19618E-01
  weight for this iteration     100.00

 eigenvalues of (default mixing * dielectric matrix)
  average eigenvalue GAMMA=   1.4934
  4.3284  2.6704  1.9858  1.2724  1.2509  1.0991  0.9041  0.5643  0.5643  0.2941

 Free energy of the ion-electron system (eV)
  ---------------------------------------------------
  alpha Z        PSCENC =         3.99825575
  Ewald energy   TEWEN  =      6468.01856133
  -Hartree energ DENC   =     -9907.28025063
  -exchange      EXHF   =         0.00000000
  -V(xc)+E(xc)   XCENC  =        98.32762788
  PAW double counting   =      6539.32428311    -6361.77243662
  entropy T*S    EENTRO =        -0.00000000
  eigenvalues    EBANDS =     -1182.35648987
  atomic energy  EATOM  =      4244.20348233
  Solvation  Ediel_sol  =         0.00000000
  ---------------------------------------------------
  free energy    TOTEN  =       -97.53696672 eV

  energy without entropy =      -97.53696672  energy(sigma->0) =      -97.53696672


--------------------------------------------------------------------------------------------------------




--------------------------------------- Iteration      1(  16)  ---------------------------------------


    POTLOK:  cpu time      0.2156: real time      0.4028
    SETDIJ:  cpu time      0.1435: real time      0.2722
     EDDAV:  cpu time      3.2974: real time      6.1964
       DOS:  cpu time      0.0362: real time      0.0693
    CHARGE:  cpu time      0.1253: real time      0.2354
    MIXING:  cpu time      0.1100: real time      0.2080
    --------------------------------------------
      LOOP:  cpu time      3.9280: real time      7.3841

 eigenvalue-minimisations  :   136
 total energy-change (2. order) :-0.4278694E-02  (-0.5600753E-03)
 number of electron      72.0000060 magnetization 
 augmentation part        7.2666947 magnetization 

 Broyden mixing:
  rms(total) = 0.79931E-02    rms(broyden)= 0.79843E-02
  rms(prec ) = 0.10774E-01
  weight for this iteration     100.00

 eigenvalues of (default mixing * dielectric matrix)
  average eigenvalue GAMMA=   1.5575
  5.0232  2.4910  2.2123  1.7943  0.2941  0.5642  0.5642  1.1724  1.1724  0.9224
  0.9224

 Free energy of the ion-electron system (eV)
  ---------------------------------------------------
  alpha Z        PSCENC =         3.99825575
  Ewald energy   TEWEN  =      6468.01856133
  -Hartree energ DENC   =     -9909.90998539
  -exchange      EXHF   =         0.00000000
  -V(xc)+E(xc)   XCENC  =        98.33866347
  PAW double counting   =      6539.50642817    -6362.17961842
  entropy T*S    EENTRO =        -0.00000000
  eigenvalues    EBANDS =     -1179.51703264
  atomic energy  EATOM  =      4244.20348233
  Solvation  Ediel_sol  =         0.00000000
  ---------------------------------------------------
  free energy    TOTEN  =       -97.54124541 eV

  energy without entropy =      -97.54124541  energy(sigma->0) =      -97.54124541


--------------------------------------------------------------------------------------------------------




--------------------------------------- Iteration      1(  17)  ---------------------------------------


    POTLOK:  cpu time      0.1941: real time      0.3691
    SETDIJ:  cpu time      0.1519: real time      0.2855
     EDDAV:  cpu time      2.7077: real time      5.0900
       DOS:  cpu time      0.0567: real time      0.1058
    CHARGE:  cpu time      0.1489: real time      0.2800
    MIXING:  cpu time      0.1065: real time      0.2015
    --------------------------------------------
      LOOP:  cpu time      3.3658: real time      6.3319

 eigenvalue-minimisations  :   104
 total energy-change (2. order) :-0.5848627E-02  (-0.7805062E-04)
 number of electron      72.0000060 magnetization 
 augmentation part        7.2619478 magnetization 

 Broyden mixing:
  rms(total) = 0.42010E-02    rms(broyden)= 0.41998E-02
  rms(prec ) = 0.59944E-02
  weight for this iteration     100.00

 eigenvalues of (default mixing * dielectric matrix)
  average eigenvalue GAMMA=   1.6470
  5.6399  2.7391  2.7391  1.6044  1.6044  1.1042  1.1042  0.2941  0.5642  0.5642
  0.9030  0.9030

 Free energy of the ion-electron system (eV)
  ---------------------------------------------------
  alpha Z        PSCENC =         3.99825575
  Ewald energy   TEWEN  =      6468.01856133
  -Hartree energ DENC   =     -9911.20196465
  -exchange      EXHF   =         0.00000000
  -V(xc)+E(xc)   XCENC  =        98.34166058
  PAW double counting   =      6542.24692380    -6364.92353992
  entropy T*S    EENTRO =        -0.00000000
  eigenvalues    EBANDS =     -1178.23047326
  atomic energy  EATOM  =      4244.20348233
  Solvation  Ediel_sol  =         0.00000000
  ---------------------------------------------------
  free energy    TOTEN  =       -97.54709404 eV

  energy without entropy =      -97.54709404  energy(sigma->0) =      -97.54709404


--------------------------------------------------------------------------------------------------------




--------------------------------------- Iteration      1(  18)  ---------------------------------------


    POTLOK:  cpu time      0.2168: real time      0.4050
    SETDIJ:  cpu time      0.1540: real time      0.2915
     EDDAV:  cpu time      2.4591: real time      4.6142
       DOS:  cpu time      0.0385: real time      0.0717
    CHARGE:  cpu time      0.1125: real time      0.2130
    MIXING:  cpu time      0.1320: real time      0.2509
    --------------------------------------------
      LOOP:  cpu time      3.1128: real time      5.8463

 eigenvalue-minimisations  :    96
 total energy-change (2. order) :-0.5038009E-02  (-0.5008007E-04)
 number of electron      72.0000060 magnetization 
 augmentation part        7.2596204 magnetization 

 Broyden mixing:
  rms(total) = 0.22345E-02    rms(broyden)= 0.22340E-02
  rms(prec ) = 0.33116E-02
  weight for this iteration     100.00

 eigenvalues of (default mixing * dielectric matrix)
  average eigenvalue GAMMA=   1.7311
  6.5011  3.2473  2.2464  2.2464  1.6412  0.2941  0.5642  0.5642  1.1467  1.1467
  1.0056  1.0056  0.8955

 Free energy of the ion-electron system (eV)
  ---------------------------------------------------
  alpha Z        PSCENC =         3.99825575
  Ewald energy   TEWEN  =      6468.01856133
  -Hartree energ DENC   =     -9911.94032475
  -exchange      EXHF   =         0.00000000
  -V(xc)+E(xc)   XCENC  =        98.33977170
  PAW double counting   =      6544.58394360    -6367.24620196
  entropy T*S    EENTRO =        -0.00000000
  eigenvalues    EBANDS =     -1177.50962005
  atomic energy  EATOM  =      4244.20348233
  Solvation  Ediel_sol  =         0.00000000
  ---------------------------------------------------
  free energy    TOTEN  =       -97.55213205 eV

  energy without entropy =      -97.55213205  energy(sigma->0) =      -97.55213205


--------------------------------------------------------------------------------------------------------




--------------------------------------- Iteration      1(  19)  ---------------------------------------


    POTLOK:  cpu time      0.2700: real time      0.5020
    SETDIJ:  cpu time      0.1659: real time      0.3146
     EDDAV:  cpu time      2.7216: real time      5.1152
       DOS:  cpu time      0.0570: real time      0.1075
    CHARGE:  cpu time      0.1362: real time      0.2541
    MIXING:  cpu time      0.1054: real time      0.1978
    --------------------------------------------
      LOOP:  cpu time      3.4561: real time      6.4913

 eigenvalue-minimisations  :   104
 total energy-change (2. order) :-0.3511438E-02  (-0.3610067E-04)
 number of electron      72.0000059 magnetization 
 augmentation part        7.2580973 magnetization 

 Broyden mixing:
  rms(total) = 0.10676E-02    rms(broyden)= 0.10670E-02
  rms(prec ) = 0.17690E-02
  weight for this iteration     100.00

 eigenvalues of (default mixing * dielectric matrix)
  average eigenvalue GAMMA=   1.8306
  7.0253  4.1690  2.4792  2.3262  1.5381  1.5381  0.2941  0.5642  0.5642  1.1181
  1.1181  1.0670  0.9401  0.8866

 Free energy of the ion-electron system (eV)
  ---------------------------------------------------
  alpha Z        PSCENC =         3.99825575
  Ewald energy   TEWEN  =      6468.01856133
  -Hartree energ DENC   =     -9912.23306951
  -exchange      EXHF   =         0.00000000
  -V(xc)+E(xc)   XCENC  =        98.33625451
  PAW double counting   =      6543.23228166    -6365.84780912
  entropy T*S    EENTRO =        -0.00000000
  eigenvalues    EBANDS =     -1177.26360044
  atomic energy  EATOM  =      4244.20348233
  Solvation  Ediel_sol  =         0.00000000
  ---------------------------------------------------
  free energy    TOTEN  =       -97.55564349 eV

  energy without entropy =      -97.55564349  energy(sigma->0) =      -97.55564349


--------------------------------------------------------------------------------------------------------




--------------------------------------- Iteration      1(  20)  ---------------------------------------


    POTLOK:  cpu time      0.2159: real time      0.4059
    SETDIJ:  cpu time      0.1520: real time      0.2863
     EDDAV:  cpu time      2.5103: real time      4.7176
       DOS:  cpu time      0.0438: real time      0.0821
    CHARGE:  cpu time      0.1419: real time      0.2665
    MIXING:  cpu time      0.1126: real time      0.2142
    --------------------------------------------
      LOOP:  cpu time      3.1767: real time      5.9727

 eigenvalue-minimisations  :    96
 total energy-change (2. order) :-0.2215572E-02  (-0.2334267E-04)
 number of electron      72.0000059 magnetization 
 augmentation part        7.2584223 magnetization 

 Broyden mixing:
  rms(total) = 0.87719E-03    rms(broyden)= 0.87699E-03
  rms(prec ) = 0.11637E-02
  weight for this iteration     100.00

 eigenvalues of (default mixing * dielectric matrix)
  average eigenvalue GAMMA=   1.8431
  7.1988  4.5651  2.4537  2.4537  1.7032  1.7032  0.2941  0.5642  0.5642  1.1487
  1.1487  1.0440  1.0440  0.8802  0.8802

 Free energy of the ion-electron system (eV)
  ---------------------------------------------------
  alpha Z        PSCENC =         3.99825575
  Ewald energy   TEWEN  =      6468.01856133
  -Hartree energ DENC   =     -9912.36069524
  -exchange      EXHF   =         0.00000000
  -V(xc)+E(xc)   XCENC  =        98.33410505
  PAW double counting   =      6543.67674752    -6366.25803679
  entropy T*S    EENTRO =        -0.00000000
  eigenvalues    EBANDS =     -1177.17027901
  atomic energy  EATOM  =      4244.20348233
  Solvation  Ediel_sol  =         0.00000000
  ---------------------------------------------------
  free energy    TOTEN  =       -97.55785906 eV

  energy without entropy =      -97.55785906  energy(sigma->0) =      -97.55785906


--------------------------------------------------------------------------------------------------------




--------------------------------------- Iteration      1(  21)  ---------------------------------------


    POTLOK:  cpu time      0.2060: real time      0.3861
    SETDIJ:  cpu time      0.1469: real time      0.2747
     EDDAV:  cpu time      2.3743: real time      4.4670
       DOS:  cpu time      0.0618: real time      0.1180
    CHARGE:  cpu time      0.1366: real time      0.2545
    MIXING:  cpu time      0.1176: real time      0.2214
    --------------------------------------------
      LOOP:  cpu time      3.0432: real time      5.7218

 eigenvalue-minimisations  :    88
 total energy-change (2. order) :-0.6888878E-03  (-0.3789899E-05)
 number of electron      72.0000059 magnetization 
 augmentation part        7.2583259 magnetization 

 Broyden mixing:
  rms(total) = 0.61161E-03    rms(broyden)= 0.61154E-03
  rms(prec ) = 0.82872E-03
  weight for this iteration     100.00

 eigenvalues of (default mixing * dielectric matrix)
  average eigenvalue GAMMA=   1.9299
  7.8638  5.0806  2.6976  2.5626  2.1837  1.6748  0.2941  0.5642  0.5642  1.1172
  1.1172  1.1926  1.1926  0.9462  0.9462  0.8814

 Free energy of the ion-electron system (eV)
  ---------------------------------------------------
  alpha Z        PSCENC =         3.99825575
  Ewald energy   TEWEN  =      6468.01856133
  -Hartree energ DENC   =     -9912.36755718
  -exchange      EXHF   =         0.00000000
  -V(xc)+E(xc)   XCENC  =        98.33267332
  PAW double counting   =      6542.58963950    -6365.18969490
  entropy T*S    EENTRO =        -0.00000000
  eigenvalues    EBANDS =     -1177.14390809
  atomic energy  EATOM  =      4244.20348233
  Solvation  Ediel_sol  =         0.00000000
  ---------------------------------------------------
  free energy    TOTEN  =       -97.55854795 eV

  energy without entropy =      -97.55854795  energy(sigma->0) =      -97.55854795


--------------------------------------------------------------------------------------------------------




--------------------------------------- Iteration      1(  22)  ---------------------------------------


    POTLOK:  cpu time      0.2340: real time      0.4473
    SETDIJ:  cpu time      0.1490: real time      0.2747
     EDDAV:  cpu time      2.6835: real time      5.0776
       DOS:  cpu time      0.0570: real time      0.1094
    CHARGE:  cpu time      0.1404: real time      0.2616
    MIXING:  cpu time      0.1351: real time      0.2563
    --------------------------------------------
      LOOP:  cpu time      3.3991: real time      6.4270

 eigenvalue-minimisations  :    88
 total energy-change (2. order) :-0.6297199E-03  (-0.6406827E-05)
 number of electron      72.0000059 magnetization 
 augmentation part        7.2586784 magnetization 

 Broyden mixing:
  rms(total) = 0.28972E-03    rms(broyden)= 0.28963E-03
  rms(prec ) = 0.39598E-03
  weight for this iteration     100.00

 eigenvalues of (default mixing * dielectric matrix)
  average eigenvalue GAMMA=   1.9448
  7.9460  5.6907  2.7760  2.7760  2.2424  1.5621  1.5621  0.2941  0.5642  0.5642
  1.1177  1.1177  1.0243  1.0243  1.0258  0.9339  0.8399

 Free energy of the ion-electron system (eV)
  ---------------------------------------------------
  alpha Z        PSCENC =         3.99825575
  Ewald energy   TEWEN  =      6468.01856133
  -Hartree energ DENC   =     -9912.38239412
  -exchange      EXHF   =         0.00000000
  -V(xc)+E(xc)   XCENC  =        98.33196578
  PAW double counting   =      6542.66823660    -6365.27195737
  entropy T*S    EENTRO =        -0.00000000
  eigenvalues    EBANDS =     -1177.12532798
  atomic energy  EATOM  =      4244.20348233
  Solvation  Ediel_sol  =         0.00000000
  ---------------------------------------------------
  free energy    TOTEN  =       -97.55917767 eV

  energy without entropy =      -97.55917767  energy(sigma->0) =      -97.55917767


--------------------------------------------------------------------------------------------------------




--------------------------------------- Iteration      1(  23)  ---------------------------------------


    POTLOK:  cpu time      0.1962: real time      0.3678
    SETDIJ:  cpu time      0.1433: real time      0.2678
     EDDAV:  cpu time      1.9502: real time      3.6666
       DOS:  cpu time      0.0429: real time      0.0789
    CHARGE:  cpu time      0.1430: real time      0.2710
    MIXING:  cpu time      0.1145: real time      0.2155
    --------------------------------------------
      LOOP:  cpu time      2.5900: real time      4.8676

 eigenvalue-minimisations  :    72
 total energy-change (2. order) :-0.1628142E-03  (-0.1377304E-05)
 number of electron      72.0000060 magnetization 
 augmentation part        7.2588217 magnetization 

 Broyden mixing:
  rms(total) = 0.18355E-03    rms(broyden)= 0.18348E-03
  rms(prec ) = 0.24957E-03
  weight for this iteration     100.00

 eigenvalues of (default mixing * dielectric matrix)
  average eigenvalue GAMMA=   2.0091
  8.3843  6.0300  3.4162  2.5642  2.3662  1.8009  1.8009  0.2941  0.5642  0.5642
  1.2071  1.2071  1.1297  1.1297  1.0259  0.9590  0.8978  0.8220

 Free energy of the ion-electron system (eV)
  ---------------------------------------------------
  alpha Z        PSCENC =         3.99825575
  Ewald energy   TEWEN  =      6468.01856133
  -Hartree energ DENC   =     -9912.37665608
  -exchange      EXHF   =         0.00000000
  -V(xc)+E(xc)   XCENC  =        98.33147096
  PAW double counting   =      6542.60157575    -6365.20988235
  entropy T*S    EENTRO =        -0.00000000
  eigenvalues    EBANDS =     -1177.12614818
  atomic energy  EATOM  =      4244.20348233
  Solvation  Ediel_sol  =         0.00000000
  ---------------------------------------------------
  free energy    TOTEN  =       -97.55934048 eV

  energy without entropy =      -97.55934048  energy(sigma->0) =      -97.55934048


--------------------------------------------------------------------------------------------------------




--------------------------------------- Iteration      1(  24)  ---------------------------------------


    POTLOK:  cpu time      0.2057: real time      0.3854
    SETDIJ:  cpu time      0.1486: real time      0.2806
     EDDAV:  cpu time      2.0627: real time      3.8766
       DOS:  cpu time      0.0315: real time      0.0595
    CHARGE:  cpu time      0.1356: real time      0.2536
[...]
 augmentation part        7.2534769 magnetization 

 Broyden mixing:
  rms(total) = 0.36390E-02    rms(broyden)= 0.36337E-02
  rms(prec ) = 0.39039E-02
  weight for this iteration     100.00

 eigenvalues of (default mixing * dielectric matrix)
  average eigenvalue GAMMA=   0.9132
  0.9132

 Free energy of the ion-electron system (eV)
  ---------------------------------------------------
  alpha Z        PSCENC =         3.99825575
  Ewald energy   TEWEN  =      6552.62882459
  -Hartree energ DENC   =     -9996.31773472
  -exchange      EXHF   =         0.00000000
  -V(xc)+E(xc)   XCENC  =        98.85353408
  PAW double counting   =      6638.61405025    -6460.78255959
  entropy T*S    EENTRO =        -0.00000000
  eigenvalues    EBANDS =     -1178.86902630
  atomic energy  EATOM  =      4244.20348233
  Solvation  Ediel_sol  =         0.00000000
  ---------------------------------------------------
  free energy    TOTEN  =       -97.67117363 eV

  energy without entropy =      -97.67117363  energy(sigma->0) =      -97.67117363


--------------------------------------------------------------------------------------------------------




--------------------------------------- Iteration     19(   3)  ---------------------------------------


    POTLOK:  cpu time      0.3121: real time      0.3129
    SETDIJ:  cpu time      0.2074: real time      0.2079
     EDDAV:  cpu time      1.4135: real time      1.4489
       DOS:  cpu time      0.0091: real time      0.0091
    --------------------------------------------
      LOOP:  cpu time      1.9421: real time      1.9788

 eigenvalue-minimisations  :    88
 total energy-change (2. order) :-0.1930758E-05  (-0.1705832E-04)
 number of electron      72.0000100 magnetization 
 augmentation part        7.2534769 magnetization 

 Free energy of the ion-electron system (eV)
  ---------------------------------------------------
  alpha Z        PSCENC =         3.99825575
  Ewald energy   TEWEN  =      6552.62882459
  -Hartree energ DENC   =     -9996.41486781
  -exchange      EXHF   =         0.00000000
  -V(xc)+E(xc)   XCENC  =        98.85613818
  PAW double counting   =      6638.27637448    -6460.44892454
  entropy T*S    EENTRO =        -0.00000000
  eigenvalues    EBANDS =     -1178.77045854
  atomic energy  EATOM  =      4244.20348233
  Solvation  Ediel_sol  =         0.00000000
  ---------------------------------------------------
  free energy    TOTEN  =       -97.67117556 eV

  energy without entropy =      -97.67117556  energy(sigma->0) =      -97.67117556


--------------------------------------------------------------------------------------------------------




 average (electrostatic) potential at core
  the test charge radii are     1.0397  1.0406  0.7672
  (the norm of the test charge is              1.0000)
       1 -85.0602       2 -85.2551       3 -84.6004       4 -84.3785       5 -84.2668
       6 -84.2803       7 -36.5214       8 -36.5581       9 -36.0753      10 -35.6635
      11 -35.8585      12 -36.3166      13 -35.9232      14 -35.7318      15 -36.0341
      16 -36.1167      17 -36.1219      18 -36.4984
 
 
 
 E-fermi :  -3.9221     XC(G=0):  -0.5905     alpha+bet : -0.3659

 Fermi energy:        -3.9221185486

 k-point     1 :       0.0000    0.0000    0.0000
  band No.  band energies     occupation 
      1     -61.2067      2.00000
      2     -61.0321      2.00000
      3     -37.8720      2.00000
      4     -37.7038      2.00000
      5     -37.5481      2.00000
      6     -37.2783      2.00000
      7     -37.2406      2.00000
      8     -37.1240      2.00000
      9     -16.6224      2.00000
     10     -15.5983      2.00000
     11     -14.1931      2.00000
     12     -13.5507      2.00000
     13     -12.8051      2.00000
     14     -12.2392      2.00000
     15     -11.2999      2.00000
     16     -10.5110      2.00000
     17      -9.6938      2.00000
     18      -9.6325      2.00000
     19      -8.9110      2.00000
     20      -8.4790      2.00000
     21      -8.1539      2.00000
     22      -7.7193      2.00000
     23      -7.5564      2.00000
     24      -7.1043      2.00000
     25      -6.8983      2.00000
     26      -6.5613      2.00000
     27      -6.2947      2.00000
     28      -6.2408      2.00000
     29      -5.9301      2.00000
     30      -5.8703      2.00000
     31      -5.5631      2.00000
     32      -5.4381      2.00000
     33      -5.2354      2.00000
     34      -5.1755      2.00000
     35      -4.7298      2.00000
     36      -4.3723      2.00000
     37      -3.4657      0.00000
     38      -3.3182      0.00000
     39      -3.1379      0.00000
     40      -2.9868      0.00000
     41      -2.9331      0.00000
     42      -2.8837      0.00000
     43      -2.5531      0.00000
     44      -2.3989      0.00000
     45      -2.3150      0.00000
     46      -2.0833      0.00000
     47      -1.8451      0.00000
     48      -1.5634      0.00000


--------------------------------------------------------------------------------------------------------


 soft charge-density along one line, spin component           1
         0         1         2         3         4         5         6         7         8         9
 total charge-density along one line
 
 pseudopotential strength for first ion, spin component:           1
 -2.040 -26.657  -0.013   0.018  -0.018   0.003  -0.004   0.012
-26.657  13.428   0.019  -0.025   0.007  -0.002   0.002  -0.002
 -0.013   0.019 -30.181   0.131  -0.051  12.473  -0.085   0.033
  0.018  -0.025   0.131 -30.141   0.115  -0.085  12.445  -0.076
 -0.018   0.007  -0.051   0.115 -30.040   0.033  -0.076  12.378
  0.003  -0.002  12.473  -0.085   0.033   4.153   0.036  -0.014
 -0.004   0.002  -0.085  12.445  -0.076   0.036   4.169   0.032
  0.012  -0.002   0.033  -0.076  12.378  -0.014   0.032   4.195
 -0.039  -0.008  -0.008  -0.003  -0.006   0.006   0.001   0.004
  0.097   0.021  -0.002   0.006  -0.003  -0.001  -0.000   0.001
 -0.011  -0.006   0.006   0.005   0.009  -0.003  -0.003  -0.005
  0.084   0.020  -0.003  -0.004  -0.000   0.001   0.005  -0.002
  0.051   0.011  -0.002   0.001  -0.011  -0.000  -0.000   0.008
 -0.048  -0.009  -0.011  -0.003  -0.008   0.008   0.001   0.006
  0.120   0.023  -0.002   0.006  -0.003  -0.003   0.001   0.001
 -0.014  -0.007   0.008   0.007   0.012  -0.004  -0.006  -0.007
  0.104   0.022  -0.003  -0.005   0.001   0.001   0.006  -0.004
  0.064   0.013  -0.001   0.001  -0.014  -0.002  -0.000   0.010
 total augmentation occupancy for first ion, spin component:           1
  1.998  -0.033  -0.003   0.004  -0.001  -0.007   0.008  -0.003  -0.002   0.024   0.002   0.028   0.022   0.005  -0.029  -0.000
 -0.033   1.172  -0.022   0.029  -0.010   0.134  -0.145   0.068   0.080   0.134  -0.116   0.279   0.141  -0.054  -0.067   0.072
 -0.003  -0.022   1.985  -0.001   0.001  -0.033  -0.002   0.002  -0.007   0.038  -0.007   0.008   0.021   0.004  -0.026   0.010
  0.004   0.029  -0.001   1.986  -0.001  -0.002  -0.030  -0.001   0.007  -0.034   0.024  -0.017  -0.005  -0.007   0.024  -0.011
 -0.001  -0.010   0.001  -0.001   1.985   0.002  -0.001  -0.032  -0.000   0.009  -0.006   0.028   0.001  -0.006  -0.008   0.006
 -0.007   0.134  -0.033  -0.002   0.002   0.109   0.017  -0.003   0.132  -0.152  -0.244   0.056  -0.220  -0.077   0.086   0.151
  0.008  -0.145  -0.002  -0.030  -0.001   0.017   0.096   0.019   0.065   0.079  -0.369   0.056  -0.049  -0.047  -0.052   0.206
 -0.003   0.068   0.002  -0.001  -0.032  -0.003   0.019   0.125   0.323   0.051  -0.151  -0.256   0.153  -0.190  -0.038   0.082
 -0.002   0.080  -0.007   0.007  -0.000   0.132   0.065   0.323   3.355   0.408  -0.319  -0.096   0.403  -1.862  -0.209   0.222
  0.024   0.134   0.038  -0.034   0.009  -0.152   0.079   0.051   0.408   2.732   0.283  -0.213  -0.542  -0.218  -1.390  -0.106
  0.002  -0.116  -0.007   0.024  -0.006  -0.244  -0.369  -0.151  -0.319   0.283   3.443  -0.025  -0.051   0.213  -0.109  -1.842
  0.028   0.279   0.008  -0.017   0.028   0.056   0.056  -0.256  -0.096  -0.213  -0.025   3.274   0.233   0.079   0.089   0.004
  0.022   0.141   0.021  -0.005   0.001  -0.220  -0.049   0.153   0.403  -0.542  -0.051   0.233   3.529  -0.202   0.245  -0.081
  0.005  -0.054   0.004  -0.007  -0.006  -0.077  -0.047  -0.190  -1.862  -0.218   0.213   0.079  -0.202   1.082   0.122  -0.151
 -0.029  -0.067  -0.026   0.024  -0.008   0.086  -0.052  -0.038  -0.209  -1.390  -0.109   0.089   0.245   0.122   0.748   0.058
 -0.000   0.072   0.010  -0.011   0.006   0.151   0.206   0.082   0.222  -0.106  -1.842   0.004  -0.081  -0.151   0.058   1.071
 -0.031  -0.124  -0.008   0.012  -0.016  -0.037  -0.036   0.158   0.074   0.084   0.005  -1.791  -0.032  -0.058  -0.051  -0.004
 -0.022  -0.031  -0.012   0.005  -0.003   0.129   0.034  -0.093  -0.202   0.250  -0.068  -0.024  -1.831   0.112  -0.123   0.074


------------------------ aborting loop because EDIFF is reached ----------------------------------------





 total charge

# of ion       s       p       d       tot
------------------------------------------
    1        2.174   6.125   2.084  10.383
    2        2.175   6.157   2.016  10.348
    3        0.442   0.345   0.000   0.787
    4        0.518   0.264   0.000   0.781
    5        0.465   0.348   0.000   0.812
    6        0.494   0.286   0.000   0.780
    7        0.729   1.292   0.000   2.021
    8        0.694   1.303   0.000   1.997
    9        0.717   1.220   0.000   1.937
   10        0.755   1.248   0.000   2.003
   11        0.746   1.250   0.000   1.995
   12        0.719   1.217   0.000   1.936
   13        0.756   1.215   0.000   1.971
   14        0.752   1.246   0.000   1.998
   15        0.713   1.200   0.000   1.913
   16        0.739   1.248   0.000   1.986
   17        0.723   1.304   0.000   2.027
   18        0.716   1.260   0.000   1.977
--------------------------------------------------
tot         15.026  28.528   4.100  47.653
 
    CHARGE:  cpu time      0.1031: real time      0.1033
    FORLOC:  cpu time      0.0728: real time      0.0730
    FORNL :  cpu time      0.2305: real time      0.2670
    STRESS:  cpu time      0.6941: real time      0.6958
    FORCOR:  cpu time      0.3733: real time      0.3742
    FORHAR:  cpu time      0.1008: real time      0.1011
    MIXING:  cpu time      0.0123: real time      0.0124
    OFIELD:  cpu time      0.0000: real time      0.0000

  FORCE on cell =-STRESS in cart. coord.  units (eV):
  Direction    XX          YY          ZZ          XY          YZ          ZX
  --------------------------------------------------------------------------------------
  Alpha Z     3.99826     3.99826     3.99826
  Ewald    2157.54025  2576.03971  1819.04660    49.78689  -188.75892  -305.76593
  Hartree  3246.19273  3636.27424  3113.46211    60.34532  -173.64065  -248.54923
  E(xc)    -272.25329  -272.73718  -273.24876     0.10989     0.31601    -0.17984
  Local   -6062.06410 -6860.90833 -5582.16546  -120.47159   361.45205   555.93195
  n-local    10.34846    19.52699    18.61768    -4.51244    -1.54647     0.72659
  augment   127.98256   124.03040   122.43710     1.86439     2.28776    -0.24595
  Kinetic   787.01393   772.52766   776.58310    12.90734    -0.03991    -1.95446
  Fock        0.00000     0.00000     0.00000     0.00000     0.00000     0.00000
  -------------------------------------------------------------------------------------
  Total      -1.24119    -1.24826    -1.26935     0.02982     0.06988    -0.03686
  in kB      -0.25305    -0.25449    -0.25879     0.00608     0.01425    -0.00752
  external pressure =       -0.26 kB  Pullay stress =        0.00 kB


 VOLUME and BASIS-vectors are now :
 -----------------------------------------------------------------------------
  energy-cutoff  :      318.61
  volume of cell :     7858.69
      direct lattice vectors                 reciprocal lattice vectors
    20.738775471  0.000000000  0.000000000     0.048218855  0.000000000  0.000000000
     0.000000000 20.180822440  0.000000000     0.000000000  0.049551994  0.000000000
     0.000000000  0.000000000 18.777092164     0.000000000  0.000000000  0.053256382

  length of vectors
    20.738775471 20.180822440 18.777092164     0.048218855  0.049551994  0.053256382


 FORCES acting on ions
    electron-ion (+dipol)            ewald-force                    non-local-force                 convergence-correction
 -----------------------------------------------------------------------------------------------
   0.290E+03 0.488E+03 -.584E+03   -.287E+03 -.482E+03 0.578E+03   -.208E+01 -.520E+01 0.629E+01   -.144E-01 -.161E-01 -.508E-01
   0.263E+03 -.305E+03 0.564E+03   -.261E+03 0.304E+03 -.560E+03   -.253E+01 0.136E+01 -.406E+01   0.226E-01 -.418E-01 0.172E-01
   -.156E+03 -.124E+03 -.831E+02   0.155E+03 0.121E+03 0.804E+02   0.924E+00 0.302E+01 0.274E+01   -.386E-02 -.291E-02 0.130E-03
   -.984E+02 0.100E+03 0.132E+03   0.981E+02 -.987E+02 -.132E+03   0.337E+00 -.141E+01 -.389E+00   -.364E-02 0.261E-03 -.302E-02
   -.136E+03 0.135E+03 -.898E+02   0.132E+03 -.132E+03 0.867E+02   0.325E+01 -.322E+01 0.313E+01   -.632E-02 0.178E-02 -.133E-02
   -.184E+03 0.542E+01 -.146E+02   0.183E+03 -.532E+01 0.142E+02   0.746E+00 -.695E-01 0.383E+00   -.196E-02 0.404E-03 -.291E-03
   -.395E+02 -.114E+03 -.222E+03   0.396E+02 0.112E+03 0.222E+03   -.171E+00 0.215E+01 -.425E+00   -.653E-02 -.242E-02 -.461E-02
   -.140E+03 0.781E+02 0.502E+02   0.140E+03 -.773E+02 -.507E+02   -.115E+00 -.740E+00 0.444E+00   -.173E-01 0.104E-01 0.174E-03
   -.649E+02 0.230E+03 0.398E+02   0.636E+02 -.231E+03 -.397E+02   0.134E+01 0.970E+00 -.956E-01   -.403E-02 0.459E-02 0.583E-02
   0.221E+03 0.116E+03 0.130E+03   -.221E+03 -.115E+03 -.130E+03   -.631E+00 -.811E+00 -.838E+00   0.160E-01 0.456E-04 0.245E-02
   0.626E+02 0.185E+03 0.159E+03   -.648E+02 -.187E+03 -.159E+03   0.212E+01 0.213E+01 -.358E+00   -.738E-02 0.161E-01 0.476E-02
   -.175E+03 -.898E-01 -.159E+03   0.174E+03 -.955E+00 0.159E+03   0.408E+00 0.105E+01 -.634E+00   -.970E-02 -.305E-02 -.774E-02
   -.141E+03 -.141E+03 0.147E+03   0.140E+03 0.140E+03 -.147E+03   0.511E+00 0.150E+01 0.599E-01   -.127E-01 -.668E-02 0.151E-02
   0.284E+03 -.360E+02 -.164E+02   -.283E+03 0.348E+02 0.164E+02   -.108E+01 0.131E+01 0.169E-01   0.110E-01 0.722E-03 0.537E-02
   -.166E+03 0.639E+01 0.148E+03   0.166E+03 -.458E+01 -.148E+03   -.256E+00 -.179E+01 0.409E+00   -.142E-01 0.178E-02 0.597E-02
   -.409E+02 -.248E+03 0.414E+02   0.404E+02 0.247E+03 -.421E+02   0.610E+00 0.123E+01 0.667E+00   -.115E-01 -.987E-02 -.618E-02
   0.179E+03 -.147E+03 -.148E+03   -.181E+03 0.145E+03 0.146E+03   0.185E+01 0.220E+01 0.138E+01   -.703E-03 -.805E-02 -.706E-02
   0.344E+02 -.231E+03 -.106E+03   -.339E+02 0.232E+03 0.104E+03   -.550E+00 -.530E+00 0.211E+01   -.680E-02 -.810E-02 -.628E-02
 -----------------------------------------------------------------------------------------------
   -.459E+01 -.306E+01 -.108E+02   0.924E-13 0.114E-12 0.000E+00   0.467E+01 0.315E+01 0.108E+02   -.714E-01 -.630E-01 -.438E-01
 
 
 POSITION                                       TOTAL-FORCE (eV/Angst)
 -----------------------------------------------------------------------------------
      9.11173      8.83483     10.85061         0.025502     -0.011550     -0.015175
      9.33315     10.75682      8.66905         0.021601      0.012117     -0.008769
     11.81185     11.80761     10.41728        -0.002920     -0.016843      0.007972
     11.77579      8.10045      7.59177         0.017558      0.004095      0.017357
     11.88209      7.75495     10.79287        -0.002272      0.015351      0.005086
     13.21297      9.78548      9.77282        -0.002830      0.023939     -0.038735
      9.89403     10.88850     11.28662         0.000240     -0.001323      0.000805
     10.82073      9.16310      9.31571        -0.004219      0.012471      0.006057
     10.53575      7.42799      9.25402         0.026657     -0.008973      0.019416
      7.90799      8.96928      8.89666         0.063899     -0.094117     -0.040419
      9.25700      8.17026      8.72446        -0.114299      0.020345      0.001576
     11.06187      9.73857     10.96688        -0.012536      0.003098     -0.007461
     11.27085     11.75393      8.14577         0.014359     -0.031210      0.039445
      7.48886     10.08745      9.85263        -0.002178      0.070579      0.053881
     11.61191     10.20910      8.13729        -0.007886      0.022284     -0.025266
     10.42575     12.69496      9.06348         0.008296     -0.023483      0.011625
      8.39206     11.04284     10.72977        -0.031418     -0.006844     -0.027096
      9.60650     12.24338     10.36288         0.002445      0.010063     -0.000298
 -----------------------------------------------------------------------------------
    total drift:                                0.007002      0.029439     -0.007573


--------------------------------------------------------------------------------------------------------



  FREE ENERGIE OF THE ION-ELECTRON SYSTEM (eV)
  ---------------------------------------------------
  free  energy   TOTEN  =       -97.67117556 eV

  energy  without entropy=      -97.67117556  energy(sigma->0) =      -97.67117556
 
 d Force = 0.1693658E-03[-0.522E-04, 0.391E-03]  d Energy = 0.1328590E-03 0.365E-04
 d Force = 0.1120071E+01[ 0.112E+01, 0.112E+01]  d Ewald  = 0.1120071E+01-0.264E-06


--------------------------------------------------------------------------------------------------------


    POTLOK:  cpu time      0.5031: real time      0.5405


--------------------------------------------------------------------------------------------------------




--------------------------------------------------------------------------------------------------------


  
 reached required accuracy - stopping structural energy minimisation
     LOOP+:  cpu time      9.9101: real time     10.6495
    4ORBIT:  cpu time      0.0000: real time      0.0000



 total charge

# of ion       s       p       d       tot
------------------------------------------
    1        2.174   6.125   2.084  10.383
    2        2.175   6.157   2.016  10.348
    3        0.442   0.345   0.000   0.787
    4        0.518   0.264   0.000   0.781
    5        0.465   0.348   0.000   0.812
    6        0.494   0.286   0.000   0.780
    7        0.729   1.292   0.000   2.021
    8        0.694   1.303   0.000   1.997
    9        0.717   1.220   0.000   1.937
   10        0.755   1.248   0.000   2.003
   11        0.746   1.250   0.000   1.995
   12        0.719   1.217   0.000   1.936
   13        0.756   1.215   0.000   1.971
   14        0.752   1.246   0.000   1.998
   15        0.713   1.200   0.000   1.913
   16        0.739   1.248   0.000   1.986
   17        0.723   1.304   0.000   2.027
   18        0.716   1.260   0.000   1.977
--------------------------------------------------
tot         15.026  28.528   4.100  47.653
 

 total amount of memory used by VASP MPI-rank0    57449. kBytes
=======================================================================

   base      :      30000. kBytes
   nonlr-proj:        628. kBytes
   fftplans  :       8954. kBytes
   grid      :      15378. kBytes
   one-center:         46. kBytes
   wavefun   :       2443. kBytes
 
  
  
 General timing and accounting informations for this job:
 ========================================================
  
                  Total CPU time used (sec):      386.537
                            User time (sec):      385.169
                          System time (sec):        1.368
                         Elapsed time (sec):      648.503
  
                   Maximum memory used (kb):      283836.
                   Average memory used (kb):          N/A
  
                          Minor page faults:       483414
                          Major page faults:            0
                 Voluntary context switches:         1601
