unknown system                          
           1
    20.738775    0.000000    0.000000
     0.000000   20.180822    0.000000
     0.000000    0.000000   18.777092
   Ti   Al   B 
     2     4    12
Direct configuration=     1
   0.44032289  0.43703176  0.57867768
   0.45041901  0.53263559  0.46059609
   0.57036754  0.58734823  0.55836817
   0.56710979  0.40275445  0.39942287
   0.57136080  0.38368034  0.57685190
   0.63835859  0.48581187  0.52353218
   0.47718066  0.53996415  0.60057713
   0.52592856  0.45562029  0.49585879
   0.50730202  0.37163996  0.49012732
   0.37897221  0.44240425  0.47507306
   0.43938459  0.39700034  0.46645089
   0.53348532  0.48357041  0.58290131
   0.54442888  0.58246394  0.43380067
   0.36164141  0.49992249  0.52462823
   0.56177270  0.50647011  0.43304766
   0.50353023  0.62836004  0.48252066
   0.40493092  0.54755200  0.57081912
   0.46332277  0.60685899  0.55107712
Direct configuration=     2
   0.44039374  0.43750731  0.57765673
   0.45066906  0.53236325  0.46158022
   0.56988677  0.58696098  0.55756419
   0.56700326  0.40286842  0.40006186
   0.57130985  0.38390134  0.57648011
   0.63783496  0.48569152  0.52339649
   0.47725830  0.53979869  0.60054367
   0.52554241  0.45539670  0.49590997
   0.50763839  0.37115949  0.49053690
   0.37896682  0.44247209  0.47510885
   0.43981027  0.39761746  0.46627876
   0.53382826  0.48348264  0.58308559
   0.54453210  0.58259284  0.43400656
   0.36164453  0.49999943  0.52473294
   0.56196094  0.50626625  0.43295074
   0.50341150  0.62864097  0.48251175
   0.40485578  0.54752989  0.57078933
   0.46327195  0.60683993  0.55113618
Direct configuration=     3
   0.44044564  0.43785569  0.57690880
   0.45085224  0.53216375  0.46230118
   0.56953457  0.58667729  0.55697522
   0.56692523  0.40295191  0.40052998
   0.57127253  0.38406324  0.57620774
   0.63745136  0.48560336  0.52329709
   0.47731518  0.53967748  0.60051915
   0.52525953  0.45523291  0.49594746
   0.50788481  0.37080751  0.49083695
   0.37896288  0.44252178  0.47513508
   0.44012212  0.39806955  0.46615266
   0.53407949  0.48341834  0.58322058
   0.54460772  0.58268727  0.43415740
   0.36164681  0.50005580  0.52480964
   0.56209883  0.50611690  0.43287975
   0.50332452  0.62884678  0.48250523
   0.40480073  0.54751370  0.57076751
   0.46323471  0.60682597  0.55117945
Direct configuration=     4
   0.44041987  0.43774542  0.57683775
   0.45110130  0.53211665  0.46253908
   0.56911030  0.58616172  0.55603472
   0.56681920  0.40297573  0.40139637
   0.57149125  0.38415754  0.57590079
   0.63691854  0.48547959  0.52307002
   0.47717049  0.53970400  0.60042295
   0.52477440  0.45501944  0.49601580
   0.50748198  0.37027058  0.49103603
   0.37903772  0.44275358  0.47497112
   0.44153591  0.39879586  0.46578585
   0.53442142  0.48346828  0.58330036
   0.54465610  0.58237539  0.43445659
   0.36135622  0.49997626  0.52460928
   0.56207786  0.50636792  0.43284163
   0.50310407  0.62907909  0.48244748
   0.40510020  0.54772737  0.57125948
   0.46324207  0.60691480  0.55140554
Direct configuration=     5
   0.44042460  0.43776565  0.57685078
   0.45105562  0.53212529  0.46249545
   0.56918812  0.58625628  0.55620722
   0.56683865  0.40297136  0.40123746
   0.57145113  0.38414024  0.57595709
   0.63701626  0.48550229  0.52311167
   0.47719703  0.53969914  0.60044059
   0.52486338  0.45505859  0.49600326
   0.50755586  0.37036906  0.49099952
   0.37902399  0.44271107  0.47500119
   0.44127660  0.39866265  0.46585313
   0.53435871  0.48345912  0.58328573
   0.54464722  0.58243259  0.43440172
   0.36140951  0.49999085  0.52464603
   0.56208171  0.50632188  0.43284862
   0.50314451  0.62903648  0.48245807
   0.40504528  0.54768818  0.57116924
   0.46324072  0.60689851  0.55136407
Direct configuration=     6
   0.44040910  0.43756213  0.57713448
   0.45113237  0.53218217  0.46234052
   0.56900824  0.58591856  0.55560168
   0.56680529  0.40294061  0.40184855
   0.57166774  0.38411691  0.57574480
   0.63673451  0.48541596  0.52291500
   0.47727929  0.53965458  0.60047142
   0.52448409  0.45491757  0.49606365
   0.50749455  0.36989764  0.49128243
   0.37944510  0.44269231  0.47472975
   0.44185394  0.39957847  0.46544104
   0.53441166  0.48353053  0.58330457
   0.54454578  0.58241931  0.43463564
   0.36133439  0.50013778  0.52470980
   0.56198292  0.50633872  0.43288321
   0.50301892  0.62907914  0.48235974
   0.40494335  0.54765607  0.57136498
   0.46326767  0.60705076  0.55149959
Direct configuration=     7
   0.44039501  0.43737721  0.57739226
   0.45120212  0.53223386  0.46219975
   0.56884480  0.58561170  0.55505148
   0.56677498  0.40291267  0.40240379
   0.57186455  0.38409571  0.57555192
   0.63647850  0.48533753  0.52273630
   0.47735404  0.53961409  0.60049944
   0.52413946  0.45478943  0.49611852
   0.50743883  0.36946930  0.49153949
   0.37982773  0.44267527  0.47448311
   0.44237852  0.40041060  0.46506660
   0.53445977  0.48359541  0.58332170
   0.54445361  0.58240724  0.43484818
   0.36126613  0.50027127  0.52476774
   0.56189316  0.50635403  0.43291463
   0.50290480  0.62911790  0.48227040
   0.40485074  0.54762690  0.57154284
   0.46329215  0.60718910  0.55162271
Direct configuration=     8
   0.44036800  0.43721289  0.57772744
   0.45109070  0.53233155  0.46196510
   0.56884552  0.58535719  0.55456794
   0.56680057  0.40280089  0.40301090
   0.57211319  0.38401138  0.57532228
   0.63634290  0.48524313  0.52247771
   0.47740450  0.53963974  0.60057286
   0.52366002  0.45460524  0.49619411
   0.50748837  0.36905900  0.49191154
   0.38008679  0.44324399  0.47453097
   0.44318090  0.40139373  0.46462528
   0.53429650  0.48351472  0.58331859
   0.54432698  0.58253163  0.43487577
   0.36144932  0.50009644  0.52461136
   0.56168529  0.50616204  0.43302242
   0.50269399  0.62916782  0.48225378
   0.40468779  0.54747621  0.57159680
   0.46329756  0.60724165  0.55174601
Direct configuration=     9
   0.44035313  0.43712243  0.57791194
   0.45102937  0.53238533  0.46183594
   0.56884591  0.58521709  0.55430177
   0.56681465  0.40273936  0.40334510
   0.57225007  0.38396495  0.57519587
   0.63626825  0.48519117  0.52233536
   0.47743227  0.53965385  0.60061327
   0.52339611  0.45450384  0.49623572
   0.50751564  0.36883313  0.49211635
   0.38022940  0.44355705  0.47455732
   0.44362260  0.40193492  0.46438234
   0.53420663  0.48347030  0.58331688
   0.54425728  0.58260010  0.43489096
   0.36155017  0.50000019  0.52452527
   0.56157085  0.50605636  0.43308175
   0.50257794  0.62919530  0.48224463
   0.40459810  0.54739326  0.57162651
   0.46330054  0.60727057  0.55181388
Direct configuration=    10
   0.44032424  0.43716829  0.57793334
   0.45080713  0.53249579  0.46173001
   0.56903705  0.58515202  0.55412889
   0.56691768  0.40250562  0.40374278
   0.57246694  0.38387590  0.57504044
   0.63635187  0.48509868  0.52205607
   0.47725685  0.53976730  0.60067426
   0.52287488  0.45430543  0.49628830
   0.50751631  0.36866844  0.49239691
   0.38063471  0.44382051  0.47441083
   0.44439255  0.40281426  0.46426337
   0.53387341  0.48318213  0.58335285
   0.54420297  0.58254317  0.43460554
   0.36167697  0.50006414  0.52468403
   0.56124242  0.50603001  0.43321695
   0.50235739  0.62927937  0.48233368
   0.40466767  0.54722754  0.57156530
   0.46321785  0.60709061  0.55190729
Direct configuration=    11
   0.44029806  0.43720985  0.57795273
   0.45060570  0.53259591  0.46163400
   0.56921031  0.58509305  0.55397220
   0.56701105  0.40229375  0.40410323
   0.57266351  0.38379518  0.57489957
   0.63642767  0.48501485  0.52180293
   0.47709784  0.53987012  0.60072953
   0.52240244  0.45412559  0.49633596
   0.50751691  0.36851917  0.49265120
   0.38100209  0.44405931  0.47427806
   0.44509043  0.40361129  0.46415554
   0.53357139  0.48292094  0.58338546
   0.54415374  0.58249158  0.43434685
   0.36179190  0.50012210  0.52482792
   0.56094474  0.50600612  0.43333949
   0.50215749  0.62935558  0.48241440
   0.40473074  0.54707733  0.57150982
   0.46314290  0.60692750  0.55199195
Direct configuration=    12
   0.44010590  0.43736710  0.57777234
   0.45047643  0.53274616  0.46163742
   0.56936751  0.58513467  0.55404692
   0.56717581  0.40199719  0.40428703
   0.57280738  0.38377076  0.57482574
   0.63664330  0.48491479  0.52151165
   0.47715752  0.53979285  0.60090363
   0.52201603  0.45404955  0.49624779
   0.50760827  0.36838460  0.49282780
   0.38130190  0.44418484  0.47412323
   0.44566425  0.40426561  0.46425848
   0.53328120  0.48273804  0.58356165
   0.54380089  0.58266374  0.43423867
   0.36159660  0.49999906  0.52483726
   0.56058485  0.50599742  0.43345479
   0.50228919  0.62912748  0.48231269
   0.40483697  0.54713498  0.57156620
   0.46310492  0.60682036  0.55191758
Direct configuration=    13
   0.44005061  0.43741235  0.57772044
   0.45043924  0.53278938  0.46163840
   0.56941273  0.58514664  0.55406841
   0.56722321  0.40191187  0.40433990
   0.57284877  0.38376374  0.57480450
   0.63670533  0.48488600  0.52142785
   0.47717469  0.53977062  0.60095372
   0.52190485  0.45402768  0.49622242
   0.50763456  0.36834589  0.49287861
   0.38138815  0.44422096  0.47407869
   0.44582934  0.40445385  0.46428810
   0.53319771  0.48268542  0.58361234
   0.54369937  0.58271328  0.43420754
   0.36154041  0.49996366  0.52483995
   0.56048131  0.50599492  0.43348796
   0.50232708  0.62906186  0.48228342
   0.40486754  0.54715156  0.57158242
   0.46309399  0.60678954  0.55189618
Direct configuration=    14
   0.43973442  0.43751902  0.57767206
   0.45035677  0.53288310  0.46167875
   0.56948088  0.58517843  0.55426560
   0.56738322  0.40168961  0.40436616
   0.57289828  0.38385153  0.57476693
   0.63687052  0.48483000  0.52117663
   0.47729480  0.53967556  0.60112328
   0.52177656  0.45406349  0.49610392
   0.50779854  0.36819975  0.49294759
   0.38140647  0.44432777  0.47397212
   0.44616093  0.40472155  0.46437538
   0.53321596  0.48261019  0.58376377
   0.54359858  0.58248508  0.43398103
   0.36136483  0.49989335  0.52483676
   0.56020182  0.50614615  0.43354465
   0.50234409  0.62903238  0.48247861
   0.40476737  0.54718699  0.57155249
   0.46316486  0.60679525  0.55172513
Direct configuration=    15
   0.43973135  0.43752005  0.57767159
   0.45035597  0.53288401  0.46167914
   0.56948154  0.58517874  0.55426751
   0.56738477  0.40168746  0.40436641
   0.57289876  0.38385238  0.57476657
   0.63687212  0.48482946  0.52117419
   0.47729597  0.53967464  0.60112493
   0.52177531  0.45406384  0.49610277
   0.50780013  0.36819833  0.49294826
   0.38140665  0.44432881  0.47397108
   0.44616415  0.40472415  0.46437623
   0.53321614  0.48260946  0.58376524
   0.54359760  0.58248286  0.43397883
   0.36136313  0.49989267  0.52483673
   0.56019911  0.50614762  0.43354520
   0.50234426  0.62903209  0.48248050
   0.40476639  0.54718733  0.57155220
   0.46316554  0.60679531  0.55172347
Direct configuration=    16
   0.43946290  0.43764305  0.57771924
   0.45023197  0.53293156  0.46168696
   0.56952661  0.58517960  0.55448744
   0.56755548  0.40153852  0.40433267
   0.57291101  0.38401081  0.57475343
   0.63699594  0.48481945  0.52090669
   0.47720740  0.53966214  0.60115434
   0.52176756  0.45411090  0.49605095
   0.50796508  0.36807417  0.49296040
   0.38138796  0.44434857  0.47385436
   0.44628898  0.40486180  0.46446072
   0.53334533  0.48253006  0.58387659
   0.54349247  0.58247690  0.43386884
   0.36122416  0.49990190  0.52486872
   0.56003732  0.50605182  0.43353563
   0.50252383  0.62904261  0.48251467
   0.40473064  0.54718466  0.57151236
   0.46316426  0.60672070  0.55178684
Direct configuration=    17
   0.43935803  0.43769110  0.57773785
   0.45018354  0.53295013  0.46169001
   0.56954422  0.58517993  0.55457335
   0.56762216  0.40148034  0.40431948
   0.57291580  0.38407270  0.57474830
   0.63704431  0.48481554  0.52080219
   0.47717280  0.53965726  0.60116583
   0.52176452  0.45412928  0.49603071
   0.50802952  0.36802567  0.49296514
   0.38138066  0.44435630  0.47380876
   0.44633774  0.40491558  0.46449372
   0.53339580  0.48249904  0.58392008
   0.54345140  0.58247456  0.43382587
   0.36116988  0.49990551  0.52488121
   0.55997412  0.50601439  0.43353190
   0.50259397  0.62904671  0.48252802
   0.40471668  0.54718361  0.57149680
   0.46316376  0.60669156  0.55181160
Direct configuration=    18
   0.43935757  0.43774290  0.57780885
   0.45009925  0.53299055  0.46168560
   0.56954977  0.58512960  0.55469318
   0.56773059  0.40143144  0.40431437
   0.57292985  0.38418536  0.57477123
   0.63708358  0.48485730  0.52061257
   0.47712005  0.53959529  0.60112014
   0.52176375  0.45408459  0.49608154
   0.50802514  0.36805154  0.49289247
   0.38134339  0.44440669  0.47380618
   0.44635128  0.40488032  0.46457213
   0.53339306  0.48253638  0.58399668
   0.54346043  0.58244996  0.43381932
   0.36113306  0.49987613  0.52478812
   0.55993989  0.50593960  0.43343660
   0.50266353  0.62905444  0.48261810
   0.40468243  0.54718986  0.57145842
   0.46319230  0.60668728  0.55185532
Direct configuration=    19
   0.43935721  0.43778325  0.57786416
   0.45003359  0.53302204  0.46168217
   0.56955410  0.58509039  0.55478652
   0.56781505  0.40139335  0.40431039
   0.57294079  0.38427311  0.57478910
   0.63711416  0.48488982  0.52046485
   0.47707896  0.53954702  0.60108456
   0.52176314  0.45404977  0.49612114
   0.50802173  0.36807169  0.49283587
   0.38131436  0.44444595  0.47380417
   0.44636183  0.40485285  0.46463321
   0.53339092  0.48256547  0.58405635
   0.54346747  0.58243080  0.43381421
   0.36110438  0.49985324  0.52471561
   0.55991323  0.50588133  0.43336236
   0.50271772  0.62906045  0.48268827
   0.40465574  0.54719472  0.57142852
   0.46321453  0.60668395  0.55188938
