       N       E                     dE             d eps       ncg     rms          rms(c)
DAV:   1     0.377668296442E+03    0.37767E+03   -0.16737E+04   128   0.552E+02
DAV:   2     0.590144892329E+02   -0.31865E+03   -0.30772E+03   152   0.163E+02
DAV:   3    -0.594522527338E+02   -0.11847E+03   -0.11506E+03   152   0.738E+01
DAV:   4    -0.795495236148E+02   -0.20097E+02   -0.19351E+02   136   0.314E+01
DAV:   5    -0.809771239341E+02   -0.14276E+01   -0.14048E+01   144   0.925E+00    0.256E+01
DAV:   6    -0.707539464265E+02    0.10223E+02   -0.27618E+02   152   0.583E+01    0.372E+01
DAV:   7    -0.628585600434E+02    0.78954E+01   -0.32142E+02   168   0.778E+01    0.146E+01
DAV:   8    -0.575932264696E+02    0.52653E+01   -0.37366E+01   144   0.187E+01    0.102E+01
DAV:   9    -0.568118420651E+02    0.78138E+00   -0.13899E+01   160   0.104E+01    0.797E+00
DAV:  10    -0.556370005707E+02    0.11748E+01   -0.63391E+00   152   0.743E+00    0.427E+00
DAV:  11    -0.554958356083E+02    0.14116E+00   -0.37428E+00   160   0.642E+00    0.355E+00
DAV:  12    -0.554283922638E+02    0.67443E-01   -0.19432E+00   160   0.463E+00    0.234E+00
DAV:  13    -0.553669295422E+02    0.61463E-01   -0.49227E-01   144   0.323E+00    0.895E-01
DAV:  14    -0.553693958286E+02   -0.24663E-02   -0.82528E-02   144   0.108E+00    0.485E-01
DAV:  15    -0.553682170344E+02    0.11788E-02   -0.27821E-02   144   0.575E-01    0.283E-01
DAV:  16    -0.553705740518E+02   -0.23570E-02   -0.10105E-02   144   0.372E-01    0.165E-01
DAV:  17    -0.553723685855E+02   -0.17945E-02   -0.53286E-03   144   0.226E-01    0.101E-01
DAV:  18    -0.553764916007E+02   -0.41230E-02   -0.26322E-03   136   0.163E-01    0.900E-02
DAV:  19    -0.553804245918E+02   -0.39330E-02   -0.12791E-03   112   0.115E-01    0.507E-02
DAV:  20    -0.553840563262E+02   -0.36317E-02   -0.69838E-04   112   0.741E-02    0.325E-02
DAV:  21    -0.553862497029E+02   -0.21934E-02   -0.35996E-04   104   0.592E-02    0.305E-02
DAV:  22    -0.553880973463E+02   -0.18476E-02   -0.18957E-04    80   0.384E-02    0.133E-02
DAV:  23    -0.553896021906E+02   -0.15048E-02   -0.16481E-04    96   0.271E-02    0.108E-02
DAV:  24    -0.553902130464E+02   -0.61086E-03   -0.33280E-05    72   0.196E-02    0.860E-03
DAV:  25    -0.553909601281E+02   -0.74708E-03   -0.66233E-05    80   0.168E-02    0.712E-03
DAV:  26    -0.553912287883E+02   -0.26866E-03   -0.17446E-05    72   0.119E-02    0.274E-03
DAV:  27    -0.553913709298E+02   -0.14214E-03   -0.15203E-05    80   0.745E-03    0.164E-03
DAV:  28    -0.553914871670E+02   -0.11624E-03   -0.95916E-06    72   0.673E-03    0.119E-03
DAV:  29    -0.553915274413E+02   -0.40274E-04   -0.49426E-06    72   0.469E-03
   1 F= -.55391527E+02 E0= -.55318121E+02  d E =-.553915E+02
       N       E                     dE             d eps       ncg     rms          rms(c)
DAV:   1    -0.258612879622E+02    0.29530E+02   -0.18291E+03    96   0.315E+02    0.160E+01
DAV:   2    -0.737183823629E+02   -0.47857E+02   -0.42480E+02   128   0.796E+01    0.449E+01
DAV:   3    -0.558780281277E+02    0.17840E+02   -0.18268E+02   152   0.608E+01    0.161E+01
DAV:   4    -0.516965257016E+02    0.41815E+01   -0.17419E+01   152   0.128E+01    0.120E+01
DAV:   5    -0.528748601538E+02   -0.11783E+01   -0.24520E+01   136   0.128E+01    0.144E+01
DAV:   6    -0.496497959181E+02    0.32251E+01   -0.83850E+00   144   0.944E+00    0.567E+00
DAV:   7    -0.497116466920E+02   -0.61851E-01   -0.75533E+00   152   0.696E+00    0.420E+00
DAV:   8    -0.493861386788E+02    0.32551E+00   -0.30676E+00   144   0.398E+00    0.198E+00
DAV:   9    -0.494662755629E+02   -0.80137E-01   -0.10413E+00   152   0.214E+00    0.221E+00
DAV:  10    -0.494001975878E+02    0.66078E-01   -0.71208E-01   160   0.146E+00    0.964E-01
DAV:  11    -0.494052759124E+02   -0.50783E-02   -0.10955E-01   152   0.768E-01    0.466E-01
DAV:  12    -0.494071604113E+02   -0.18845E-02   -0.53668E-02   160   0.485E-01    0.527E-01
DAV:  13    -0.494054583740E+02    0.17020E-02   -0.14006E-02   160   0.310E-01    0.183E-01
DAV:  14    -0.494062965919E+02   -0.83822E-03   -0.30648E-03   144   0.183E-01    0.933E-02
DAV:  15    -0.494069332472E+02   -0.63666E-03   -0.93251E-04   128   0.913E-02    0.513E-02
DAV:  16    -0.494076840509E+02   -0.75080E-03   -0.36100E-04    88   0.524E-02    0.328E-02
DAV:  17    -0.494085277635E+02   -0.84371E-03   -0.24436E-04    80   0.426E-02    0.311E-02
DAV:  18    -0.494088644173E+02   -0.33665E-03   -0.13690E-04    72   0.371E-02    0.173E-02
DAV:  19    -0.494092886401E+02   -0.42422E-03   -0.62844E-05    72   0.227E-02    0.101E-02
DAV:  20    -0.494098200865E+02   -0.53145E-03   -0.98109E-05    80   0.191E-02    0.638E-03
DAV:  21    -0.494101305416E+02   -0.31046E-03   -0.48186E-05    72   0.134E-02    0.305E-03
DAV:  22    -0.494102767347E+02   -0.14619E-03   -0.29118E-05    72   0.108E-02    0.392E-03
DAV:  23    -0.494103437753E+02   -0.67041E-04   -0.13951E-05    72   0.784E-03
   2 F= -.49410344E+02 E0= -.49314324E+02  d E =0.598118E+01
       N       E                     dE             d eps       ncg     rms          rms(c)
DAV:   1    -0.593299371234E+02   -0.99197E+01   -0.71398E+02   104   0.189E+02    0.114E+01
DAV:   2    -0.674637541926E+02   -0.81338E+01   -0.12369E+02   144   0.518E+01    0.113E+01
DAV:   3    -0.631066646211E+02    0.43571E+01   -0.15294E+01   152   0.173E+01    0.474E+00
DAV:   4    -0.629871385358E+02    0.11953E+00   -0.53536E+00   144   0.800E+00    0.421E+00
DAV:   5    -0.631773022140E+02   -0.19016E+00   -0.78023E+00   144   0.628E+00    0.684E+00
DAV:   6    -0.627755408489E+02    0.40176E+00   -0.40894E+00   144   0.685E+00    0.245E+00
DAV:   7    -0.627701422315E+02    0.53986E-02   -0.95142E-01   144   0.344E+00    0.184E+00
DAV:   8    -0.627376652245E+02    0.32477E-01   -0.36191E-01   136   0.243E+00    0.992E-01
DAV:   9    -0.627334308801E+02    0.42343E-02   -0.85713E-02   136   0.951E-01    0.314E-01
DAV:  10    -0.627354362713E+02   -0.20054E-02   -0.17073E-02   136   0.369E-01    0.152E-01
DAV:  11    -0.627364706675E+02   -0.10344E-02   -0.52524E-03   152   0.178E-01    0.106E-01
DAV:  12    -0.627372000966E+02   -0.72943E-03   -0.10926E-03   120   0.883E-02    0.557E-02
DAV:  13    -0.627378633261E+02   -0.66323E-03   -0.75617E-04   112   0.881E-02    0.659E-02
DAV:  14    -0.627383155246E+02   -0.45220E-03   -0.29860E-04    88   0.702E-02    0.140E-02
DAV:  15    -0.627388721929E+02   -0.55667E-03   -0.95597E-05    72   0.312E-02    0.996E-03
DAV:  16    -0.627393671552E+02   -0.49496E-03   -0.10690E-04    80   0.294E-02    0.170E-02
DAV:  17    -0.627398055717E+02   -0.43842E-03   -0.69187E-05    72   0.279E-02    0.523E-03
DAV:  18    -0.627400376057E+02   -0.23203E-03   -0.52300E-05    80   0.140E-02    0.491E-03
DAV:  19    -0.627402158800E+02   -0.17827E-03   -0.24594E-05    72   0.113E-02    0.227E-03
DAV:  20    -0.627402867747E+02   -0.70895E-04   -0.13517E-05    72   0.873E-03
   3 F= -.62740287E+02 E0= -.62685677E+02  d E =-.734876E+01
       N       E                     dE             d eps       ncg     rms          rms(c)
DAV:   1    -0.641794679960E+02   -0.14393E+01   -0.16549E+02   112   0.110E+02    0.605E+00
DAV:   2    -0.751912601073E+02   -0.11012E+02   -0.95066E+01   152   0.307E+01    0.335E+01
DAV:   3    -0.654816858910E+02    0.97096E+01   -0.42035E+01   152   0.261E+01    0.478E+00
DAV:   4    -0.654468974929E+02    0.34788E-01   -0.63727E+00   144   0.736E+00    0.357E+00
DAV:   5    -0.653751158459E+02    0.71782E-01   -0.21769E+00   144   0.498E+00    0.290E+00
DAV:   6    -0.652965134618E+02    0.78602E-01   -0.77185E-01   152   0.271E+00    0.112E+00
DAV:   7    -0.652980250213E+02   -0.15116E-02   -0.13798E-01   144   0.134E+00    0.572E-01
DAV:   8    -0.652983708313E+02   -0.34581E-03   -0.31687E-02   144   0.641E-01    0.268E-01
DAV:   9    -0.652994232158E+02   -0.10524E-02   -0.50187E-03   144   0.250E-01    0.162E-01
DAV:  10    -0.653002391599E+02   -0.81594E-03   -0.25052E-03   136   0.145E-01    0.125E-01
DAV:  11    -0.653004878004E+02   -0.24864E-03   -0.15139E-03   120   0.106E-01    0.707E-02
DAV:  12    -0.653008975501E+02   -0.40975E-03   -0.36039E-04    88   0.733E-02    0.374E-02
DAV:  13    -0.653011320351E+02   -0.23449E-03   -0.95278E-05    72   0.402E-02    0.222E-02
DAV:  14    -0.653013432376E+02   -0.21120E-03   -0.76365E-05    80   0.256E-02    0.110E-02
DAV:  15    -0.653014940357E+02   -0.15080E-03   -0.22843E-05    72   0.165E-02    0.638E-03
DAV:  16    -0.653016571576E+02   -0.16312E-03   -0.27302E-05    72   0.137E-02    0.384E-03
DAV:  17    -0.653017801179E+02   -0.12296E-03   -0.18176E-05    56   0.110E-02    0.285E-03
DAV:  18    -0.653018748302E+02   -0.94712E-04   -0.18945E-05    56   0.887E-03
   4 F= -.65301875E+02 E0= -.65234331E+02  d E =-.256159E+01
       N       E                     dE             d eps       ncg     rms          rms(c)
DAV:   1    -0.621924033628E+02    0.31094E+01   -0.56465E+02   112   0.188E+02    0.893E+00
DAV:   2    -0.817991205537E+02   -0.19607E+02   -0.15570E+02   136   0.511E+01    0.388E+01
DAV:   3    -0.668128092817E+02    0.14986E+02   -0.64718E+01   152   0.367E+01    0.578E+00
DAV:   4    -0.672310811319E+02   -0.41827E+00   -0.11713E+01   136   0.124E+01    0.579E+00
DAV:   5    -0.668365926743E+02    0.39449E+00   -0.44823E+00   152   0.714E+00    0.347E+00
DAV:   6    -0.667386359464E+02    0.97957E-01   -0.10504E+00   144   0.397E+00    0.159E+00
DAV:   7    -0.667224588561E+02    0.16177E-01   -0.55461E-01   152   0.189E+00    0.100E+00
DAV:   8    -0.667160769621E+02    0.63819E-02   -0.11202E-01   160   0.984E-01    0.413E-01
DAV:   9    -0.667183327524E+02   -0.22558E-02   -0.22296E-02   152   0.412E-01    0.217E-01
DAV:  10    -0.667196167981E+02   -0.12840E-02   -0.79750E-03   152   0.319E-01    0.154E-01
DAV:  11    -0.667201564520E+02   -0.53965E-03   -0.24466E-03   136   0.148E-01    0.700E-02
DAV:  12    -0.667208651838E+02   -0.70873E-03   -0.50671E-04   104   0.772E-02    0.499E-02
DAV:  13    -0.667213115079E+02   -0.44632E-03   -0.17506E-04    96   0.459E-02    0.212E-02
DAV:  14    -0.667217072086E+02   -0.39570E-03   -0.73361E-05    80   0.284E-02    0.130E-02
DAV:  15    -0.667221351296E+02   -0.42792E-03   -0.57044E-05    88   0.245E-02    0.914E-03
DAV:  16    -0.667226197102E+02   -0.48458E-03   -0.10388E-04    96   0.233E-02    0.815E-03
DAV:  17    -0.667228194148E+02   -0.19970E-03   -0.19797E-05    88   0.136E-02    0.584E-03
DAV:  18    -0.667229508790E+02   -0.13146E-03   -0.16370E-05    80   0.101E-02    0.385E-03
DAV:  19    -0.667230358526E+02   -0.84974E-04   -0.89656E-06    72   0.825E-03
   5 F= -.66723036E+02 E0= -.66662625E+02  d E =-.398275E+01
       N       E                     dE             d eps       ncg     rms          rms(c)
DAV:   1    -0.665487693354E+02    0.17418E+00   -0.54630E+01   112   0.643E+01    0.326E+00
DAV:   2    -0.680669595315E+02   -0.15182E+01   -0.18508E+01   144   0.154E+01    0.840E+00
DAV:   3    -0.669469901803E+02    0.11200E+01   -0.51786E+00   136   0.811E+00    0.295E+00
DAV:   4    -0.668977762471E+02    0.49214E-01   -0.15958E+00   136   0.404E+00    0.186E+00
DAV:   5    -0.668964793710E+02    0.12969E-02   -0.46412E-01   152   0.184E+00    0.152E+00
DAV:   6    -0.668777582928E+02    0.18721E-01   -0.23015E-01   160   0.218E+00    0.662E-01
DAV:   7    -0.668793902948E+02   -0.16320E-02   -0.64677E-02   144   0.809E-01    0.309E-01
DAV:   8    -0.668797503065E+02   -0.36001E-03   -0.19090E-02   144   0.362E-01    0.177E-01
DAV:   9    -0.668799051325E+02   -0.15483E-03   -0.63419E-03   144   0.195E-01    0.968E-02
DAV:  10    -0.668800824648E+02   -0.17733E-03   -0.12731E-03   128   0.115E-01    0.434E-02
DAV:  11    -0.668803059793E+02   -0.22351E-03   -0.15026E-04    80   0.534E-02    0.203E-02
DAV:  12    -0.668804233556E+02   -0.11738E-03   -0.46625E-05    72   0.278E-02    0.982E-03
DAV:  13    -0.668805347827E+02   -0.11143E-03   -0.23367E-05    72   0.182E-02    0.456E-03
DAV:  14    -0.668806263809E+02   -0.91598E-04   -0.16972E-05    72   0.123E-02
   6 F= -.66880626E+02 E0= -.66818189E+02  d E =-.414034E+01
       N       E                     dE             d eps       ncg     rms          rms(c)
DAV:   1    -0.677894503205E+02   -0.90892E+00   -0.26901E+01   112   0.468E+01    0.173E+00
DAV:   2    -0.684632808795E+02   -0.67383E+00   -0.66787E+00   144   0.116E+01    0.737E+00
DAV:   3    -0.680317396000E+02    0.43154E+00   -0.39645E+00   144   0.650E+00    0.161E+00
DAV:   4    -0.680552195030E+02   -0.23480E-01   -0.54770E-01   152   0.215E+00    0.156E+00
DAV:   5    -0.680271260062E+02    0.28093E-01   -0.20625E-01   152   0.204E+00    0.465E-01
DAV:   6    -0.680310612130E+02   -0.39352E-02   -0.30532E-02   136   0.869E-01    0.285E-01
DAV:   7    -0.680313382487E+02   -0.27704E-03   -0.12834E-02   136   0.368E-01    0.177E-01
DAV:   8    -0.680313059204E+02    0.32328E-04   -0.21020E-03   144   0.159E-01    0.708E-02
DAV:   9    -0.680314108062E+02   -0.10489E-03   -0.63356E-04    88   0.824E-02    0.391E-02
DAV:  10    -0.680314690676E+02   -0.58261E-04   -0.15270E-04    80   0.591E-02
   7 F= -.68031469E+02 E0= -.67967912E+02  d E =-.115084E+01
       N       E                     dE             d eps       ncg     rms          rms(c)
DAV:   1    -0.688168843076E+02   -0.78547E+00   -0.25386E+02   112   0.132E+02    0.487E+00
DAV:   2    -0.726455399629E+02   -0.38287E+01   -0.39338E+01   104   0.309E+01    0.150E+01
DAV:   3    -0.712783650526E+02    0.13672E+01   -0.21393E+01   144   0.157E+01    0.473E+00
DAV:   4    -0.713176549853E+02   -0.39290E-01   -0.43732E+00   152   0.679E+00    0.458E+00
DAV:   5    -0.710695525085E+02    0.24810E+00   -0.18223E+00   136   0.669E+00    0.141E+00
DAV:   6    -0.710846004487E+02   -0.15048E-01   -0.25105E-01   152   0.181E+00    0.892E-01
DAV:   7    -0.710794717750E+02    0.51287E-02   -0.13216E-01   152   0.948E-01    0.399E-01
DAV:   8    -0.710814326882E+02   -0.19609E-02   -0.20337E-02   144   0.464E-01    0.185E-01
DAV:   9    -0.710819710364E+02   -0.53835E-03   -0.56941E-03   152   0.232E-01    0.118E-01
DAV:  10    -0.710825930367E+02   -0.62200E-03   -0.15059E-03   112   0.128E-01    0.662E-02
DAV:  11    -0.710830274226E+02   -0.43439E-03   -0.29257E-04    88   0.879E-02    0.305E-02
DAV:  12    -0.710833739797E+02   -0.34656E-03   -0.21036E-04   104   0.536E-02    0.184E-02
DAV:  13    -0.710836151968E+02   -0.24122E-03   -0.49280E-05    80   0.285E-02    0.122E-02
DAV:  14    -0.710840640746E+02   -0.44888E-03   -0.68184E-05    88   0.259E-02    0.701E-03
DAV:  15    -0.710843689099E+02   -0.30484E-03   -0.41922E-05    88   0.164E-02    0.449E-03
DAV:  16    -0.710846618205E+02   -0.29291E-03   -0.44988E-05    88   0.147E-02    0.315E-03
DAV:  17    -0.710847668830E+02   -0.10506E-03   -0.15969E-05    80   0.948E-03    0.224E-03
DAV:  18    -0.710848484027E+02   -0.81520E-04   -0.13366E-05    72   0.809E-03
   8 F= -.71084848E+02 E0= -.71024949E+02  d E =-.420422E+01
       N       E                     dE             d eps       ncg     rms          rms(c)
DAV:   1    -0.611276427155E+02    0.99571E+01   -0.10740E+03   120   0.249E+02    0.116E+01
DAV:   2    -0.774621576476E+02   -0.16335E+02   -0.16469E+02   104   0.648E+01    0.244E+01
DAV:   3    -0.728472595548E+02    0.46149E+01   -0.62142E+01   152   0.406E+01    0.823E+00
DAV:   4    -0.722462133863E+02    0.60105E+00   -0.68425E+00   128   0.919E+00    0.582E+00
DAV:   5    -0.719499970768E+02    0.29622E+00   -0.46094E+00   144   0.123E+01    0.396E+00
DAV:   6    -0.718245697536E+02    0.12543E+00   -0.14872E+00   144   0.419E+00    0.204E+00
DAV:   7    -0.718379189624E+02   -0.13349E-01   -0.66362E-01   144   0.265E+00    0.124E+00
DAV:   8    -0.718226824661E+02    0.15236E-01   -0.36243E-01   152   0.172E+00    0.576E-01
DAV:   9    -0.718208027243E+02    0.18797E-02   -0.57659E-02   152   0.638E-01    0.300E-01
DAV:  10    -0.718234604812E+02   -0.26578E-02   -0.80610E-03   136   0.288E-01    0.231E-01
DAV:  11    -0.718246642416E+02   -0.12038E-02   -0.34450E-03   144   0.250E-01    0.781E-02
DAV:  12    -0.718255208956E+02   -0.85665E-03   -0.67024E-04   104   0.104E-01    0.313E-02
DAV:  13    -0.718264270335E+02   -0.90614E-03   -0.21358E-04    88   0.579E-02    0.213E-02
DAV:  14    -0.718273340240E+02   -0.90699E-03   -0.19617E-04    96   0.415E-02    0.127E-02
DAV:  15    -0.718279892651E+02   -0.65524E-03   -0.81321E-05    88   0.244E-02    0.948E-03
DAV:  16    -0.718285356622E+02   -0.54640E-03   -0.96192E-05    88   0.216E-02    0.512E-03
DAV:  17    -0.718288141022E+02   -0.27844E-03   -0.36035E-05    80   0.146E-02    0.273E-03
DAV:  18    -0.718289824918E+02   -0.16839E-03   -0.21619E-05    72   0.107E-02    0.242E-03
DAV:  19    -0.718290481082E+02   -0.65616E-04   -0.12436E-05    72   0.894E-03
   9 F= -.71829048E+02 E0= -.71802010E+02  d E =-.494842E+01
       N       E                     dE             d eps       ncg     rms          rms(c)
DAV:   1    -0.697869185786E+02    0.20421E+01   -0.34379E+02   104   0.153E+02    0.692E+00
DAV:   2    -0.752906398730E+02   -0.55037E+01   -0.58971E+01   120   0.362E+01    0.152E+01
DAV:   3    -0.728653948787E+02    0.24252E+01   -0.20681E+01   136   0.242E+01    0.419E+00
DAV:   4    -0.728021901660E+02    0.63205E-01   -0.23642E+00   144   0.574E+00    0.329E+00
DAV:   5    -0.730920219089E+02   -0.28983E+00   -0.43466E+00   144   0.669E+00    0.525E+00
DAV:   6    -0.727851301048E+02    0.30689E+00   -0.18890E+00   144   0.555E+00    0.144E+00
DAV:   7    -0.727895364855E+02   -0.44064E-02   -0.38732E-01   144   0.187E+00    0.128E+00
DAV:   8    -0.727768599862E+02    0.12676E-01   -0.17490E-01   144   0.181E+00    0.383E-01
DAV:   9    -0.727787630339E+02   -0.19030E-02   -0.17853E-02   144   0.460E-01    0.189E-01
DAV:  10    -0.727793504075E+02   -0.58737E-03   -0.46513E-03   144   0.239E-01    0.144E-01
DAV:  11    -0.727796649497E+02   -0.31454E-03   -0.31254E-03   136   0.235E-01    0.531E-02
DAV:  12    -0.727800766499E+02   -0.41170E-03   -0.40135E-04    88   0.744E-02    0.244E-02
DAV:  13    -0.727804674457E+02   -0.39080E-03   -0.87417E-05    80   0.435E-02    0.132E-02
DAV:  14    -0.727807836693E+02   -0.31622E-03   -0.47198E-05    72   0.246E-02    0.821E-03
DAV:  15    -0.727810881445E+02   -0.30448E-03   -0.66408E-05    80   0.242E-02    0.551E-03
DAV:  16    -0.727812957827E+02   -0.20764E-03   -0.30933E-05    72   0.165E-02    0.384E-03
DAV:  17    -0.727814245392E+02   -0.12876E-03   -0.31125E-05    64   0.144E-02    0.299E-03
DAV:  18    -0.727814936680E+02   -0.69129E-04   -0.11955E-05    48   0.104E-02
  10 F= -.72781494E+02 E0= -.72738169E+02  d E =-.590087E+01
       N       E                     dE             d eps       ncg     rms          rms(c)
DAV:   1    -0.725483929063E+02    0.23303E+00   -0.56276E+01   112   0.649E+01    0.242E+00
DAV:   2    -0.730080063208E+02   -0.45961E+00   -0.62279E+00   112   0.125E+01    0.241E+00
DAV:   3    -0.730922514139E+02   -0.84245E-01   -0.23881E+00   152   0.593E+00    0.353E+00
DAV:   4    -0.729760385648E+02    0.11621E+00   -0.12300E+00   144   0.333E+00    0.145E+00
DAV:   5    -0.729768808022E+02   -0.84224E-03   -0.31948E-01   144   0.244E+00    0.939E-01
DAV:   6    -0.729691682304E+02    0.77126E-02   -0.14921E-01   144   0.196E+00    0.355E-01
DAV:   7    -0.729691708875E+02   -0.26571E-05   -0.26088E-02   144   0.643E-01    0.142E-01
DAV:   8    -0.729694954882E+02   -0.32460E-03   -0.62110E-03   160   0.207E-01    0.991E-02
DAV:   9    -0.729695099956E+02   -0.14507E-04   -0.15091E-03   112   0.106E-01    0.442E-02
DAV:  10    -0.729696516720E+02   -0.14168E-03   -0.20075E-04    80   0.698E-02    0.210E-02
DAV:  11    -0.729697343907E+02   -0.82719E-04   -0.69930E-05    72   0.402E-02
  11 F= -.72969734E+02 E0= -.72936062E+02  d E =-.608911E+01
       N       E                     dE             d eps       ncg     rms          rms(c)
DAV:   1    -0.741471556555E+02   -0.11775E+01   -0.64749E+01    96   0.577E+01    0.272E+00
DAV:   2    -0.745750395487E+02   -0.42788E+00   -0.77916E+00   120   0.120E+01    0.407E+00
DAV:   3    -0.745726208342E+02    0.24187E-02   -0.52598E+00   144   0.629E+00    0.435E+00
DAV:   4    -0.743898480157E+02    0.18277E+00   -0.15715E+00   144   0.380E+00    0.143E+00
DAV:   5    -0.743841223489E+02    0.57257E-02   -0.35596E-01   168   0.202E+00    0.925E-01
DAV:   6    -0.743785882648E+02    0.55341E-02   -0.14685E-01   136   0.194E+00    0.507E-01
DAV:   7    -0.743816099463E+02   -0.30217E-02   -0.90312E-02   136   0.157E+00    0.497E-01
DAV:   8    -0.743776013802E+02    0.40086E-02   -0.26815E-02   136   0.779E-01    0.960E-02
DAV:   9    -0.743782426836E+02   -0.64130E-03   -0.21009E-03   144   0.183E-01    0.606E-02
DAV:  10    -0.743783975855E+02   -0.15490E-03   -0.19160E-04    72   0.778E-02    0.363E-02
DAV:  11    -0.743785263411E+02   -0.12876E-03   -0.12610E-04    72   0.525E-02    0.109E-02
DAV:  12    -0.743786334110E+02   -0.10707E-03   -0.48095E-05    72   0.309E-02    0.557E-03
DAV:  13    -0.743787478560E+02   -0.11445E-03   -0.27079E-05    72   0.232E-02    0.433E-03
DAV:  14    -0.743788477422E+02   -0.99886E-04   -0.17516E-05    72   0.153E-02
  12 F= -.74378848E+02 E0= -.74346306E+02  d E =-.140911E+01
       N       E                     dE             d eps       ncg     rms          rms(c)
DAV:   1    -0.746882768547E+02   -0.30953E+00   -0.76293E+01    96   0.623E+01    0.319E+00
DAV:   2    -0.753331765439E+02   -0.64490E+00   -0.11451E+01   128   0.130E+01    0.508E+00
DAV:   3    -0.751200164911E+02    0.21316E+00   -0.65872E+00   152   0.611E+00    0.468E+00
DAV:   4    -0.749494758056E+02    0.17054E+00   -0.23825E+00   152   0.435E+00    0.205E+00
DAV:   5    -0.749153510302E+02    0.34125E-01   -0.55233E-01   144   0.201E+00    0.930E-01
DAV:   6    -0.749117839756E+02    0.35671E-02   -0.13425E-01   152   0.121E+00    0.521E-01
DAV:   7    -0.749162392438E+02   -0.44553E-02   -0.91130E-02   136   0.158E+00    0.610E-01
DAV:   8    -0.749114422948E+02    0.47969E-02   -0.50525E-02   136   0.131E+00    0.135E-01
DAV:   9    -0.749119269627E+02   -0.48467E-03   -0.28408E-03   136   0.266E-01    0.648E-02
DAV:  10    -0.749121296499E+02   -0.20269E-03   -0.41382E-04    96   0.895E-02    0.325E-02
DAV:  11    -0.749122711819E+02   -0.14153E-03   -0.98692E-05    72   0.467E-02    0.114E-02
DAV:  12    -0.749124051298E+02   -0.13395E-03   -0.34023E-05    72   0.276E-02    0.631E-03
DAV:  13    -0.749125426273E+02   -0.13750E-03   -0.19948E-05    72   0.166E-02    0.393E-03
DAV:  14    -0.749126553669E+02   -0.11274E-03   -0.14599E-05    72   0.131E-02    0.246E-03
DAV:  15    -0.749127742537E+02   -0.11889E-03   -0.19261E-05    72   0.102E-02    0.189E-03
DAV:  16    -0.749128378021E+02   -0.63548E-04   -0.12913E-05    72   0.937E-03
  13 F= -.74912838E+02 E0= -.74878976E+02  d E =-.194310E+01
       N       E                     dE             d eps       ncg     rms          rms(c)
DAV:   1    -0.762343548455E+02   -0.13216E+01   -0.84842E+01   104   0.670E+01    0.279E+00
DAV:   2    -0.767718680426E+02   -0.53751E+00   -0.75471E+00   136   0.129E+01    0.254E+00
DAV:   3    -0.767756886536E+02   -0.38206E-02   -0.17866E+00   136   0.819E+00    0.322E+00
DAV:   4    -0.767210516334E+02    0.54637E-01   -0.16339E+00   144   0.403E+00    0.239E+00
DAV:   5    -0.766904590987E+02    0.30593E-01   -0.74778E-01   144   0.273E+00    0.127E+00
DAV:   6    -0.766739011600E+02    0.16558E-01   -0.19238E-01   128   0.231E+00    0.387E-01
DAV:   7    -0.766751385752E+02   -0.12374E-02   -0.45103E-02   144   0.612E-01    0.271E-01
DAV:   8    -0.766745836173E+02    0.55496E-03   -0.15180E-02   160   0.246E-01    0.106E-01
DAV:   9    -0.766748098759E+02   -0.22626E-03   -0.15600E-03   120   0.137E-01    0.634E-02
DAV:  10    -0.766749620361E+02   -0.15216E-03   -0.26275E-04    72   0.895E-02    0.334E-02
DAV:  11    -0.766751214915E+02   -0.15946E-03   -0.19706E-04    88   0.665E-02    0.121E-02
DAV:  12    -0.766752099446E+02   -0.88453E-04   -0.25977E-05    72   0.288E-02
  14 F= -.76675210E+02 E0= -.76644069E+02  d E =-.176237E+01
       N       E                     dE             d eps       ncg     rms          rms(c)
DAV:   1    -0.767773859287E+02   -0.10226E+00   -0.12473E+01   104   0.258E+01    0.113E+00
DAV:   2    -0.768414767094E+02   -0.64091E-01   -0.10650E+00   128   0.478E+00    0.938E-01
DAV:   3    -0.768480297029E+02   -0.65530E-02   -0.26590E-01   144   0.236E+00    0.139E+00
DAV:   4    -0.768326160741E+02    0.15414E-01   -0.21687E-01   144   0.135E+00    0.890E-01
DAV:   5    -0.768287713070E+02    0.38448E-02   -0.13678E-01   136   0.159E+00    0.480E-01
DAV:   6    -0.768271977785E+02    0.15735E-02   -0.29943E-02   136   0.939E-01    0.151E-01
DAV:   7    -0.768274228909E+02   -0.22511E-03   -0.79783E-03   136   0.278E-01    0.106E-01
DAV:   8    -0.768273676264E+02    0.55265E-04   -0.18062E-03   104   0.107E-01    0.335E-02
DAV:   9    -0.768274698800E+02   -0.10225E-03   -0.11843E-04    48   0.523E-02    0.149E-02
DAV:  10    -0.768275328808E+02   -0.63001E-04   -0.35708E-05    48   0.321E-02
  15 F= -.76827533E+02 E0= -.76796914E+02  d E =-.191470E+01
       N       E                     dE             d eps       ncg     rms          rms(c)
DAV:   1    -0.775309941267E+02   -0.70352E+00   -0.36381E+01   112   0.522E+01    0.215E+00
DAV:   2    -0.779177541761E+02   -0.38676E+00   -0.58679E+00   120   0.105E+01    0.259E+00
DAV:   3    -0.778723982423E+02    0.45356E-01   -0.14413E+00   144   0.412E+00    0.245E+00
DAV:   4    -0.778174584361E+02    0.54940E-01   -0.61805E-01   152   0.226E+00    0.110E+00
DAV:   5    -0.778185924487E+02   -0.11340E-02   -0.18691E-01   136   0.209E+00    0.914E-01
DAV:   6    -0.778156135782E+02    0.29789E-02   -0.19542E-01   136   0.271E+00    0.628E-01
DAV:   7    -0.778109490360E+02    0.46645E-02   -0.39942E-02   136   0.103E+00    0.118E-01
DAV:   8    -0.778113255475E+02   -0.37651E-03   -0.40949E-03   152   0.264E-01    0.716E-02
DAV:   9    -0.778114313980E+02   -0.10585E-03   -0.36873E-04   104   0.107E-01    0.494E-02
DAV:  10    -0.778115494162E+02   -0.11802E-03   -0.91604E-05    56   0.609E-02    0.227E-02
DAV:  11    -0.778116295547E+02   -0.80139E-04   -0.69457E-05    48   0.369E-02
  16 F= -.77811630E+02 E0= -.77786988E+02  d E =-.984097E+00
       N       E                     dE             d eps       ncg     rms          rms(c)
DAV:   1    -0.777483359997E+02    0.63213E-01   -0.49260E+01   112   0.606E+01    0.237E+00
DAV:   2    -0.783050399508E+02   -0.55670E+00   -0.74805E+00   120   0.123E+01    0.357E+00
DAV:   3    -0.782042208113E+02    0.10082E+00   -0.21173E+00   144   0.540E+00    0.235E+00
DAV:   4    -0.781495232966E+02    0.54698E-01   -0.62442E-01   152   0.295E+00    0.110E+00
DAV:   5    -0.781574304816E+02   -0.79072E-02   -0.25019E-01   136   0.253E+00    0.118E+00
DAV:   6    -0.781460015570E+02    0.11429E-01   -0.23444E-01   136   0.303E+00    0.553E-01
DAV:   7    -0.781438978137E+02    0.21037E-02   -0.27718E-02   136   0.849E-01    0.149E-01
DAV:   8    -0.781441832685E+02   -0.28545E-03   -0.42388E-03   152   0.254E-01    0.735E-02
DAV:   9    -0.781443708128E+02   -0.18754E-03   -0.49425E-04   104   0.122E-01    0.518E-02
DAV:  10    -0.781445312902E+02   -0.16048E-03   -0.10897E-04    56   0.635E-02    0.270E-02
DAV:  11    -0.781446718140E+02   -0.14052E-03   -0.78917E-05    72   0.464E-02    0.102E-02
DAV:  12    -0.781447719906E+02   -0.10018E-03   -0.38177E-05    56   0.274E-02    0.511E-03
DAV:  13    -0.781448921757E+02   -0.12019E-03   -0.28360E-05    56   0.190E-02    0.663E-03
DAV:  14    -0.781449928675E+02   -0.10069E-03   -0.16129E-05    48   0.196E-02    0.393E-03
DAV:  15    -0.781450852619E+02   -0.92394E-04   -0.16868E-05    56   0.160E-02
  17 F= -.78145085E+02 E0= -.78124863E+02  d E =-.131755E+01
       N       E                     dE             d eps       ncg     rms          rms(c)
DAV:   1    -0.786505920096E+02   -0.50560E+00   -0.38349E+01   104   0.548E+01    0.165E+00
DAV:   2    -0.790459715061E+02   -0.39538E+00   -0.44667E+00   112   0.105E+01    0.220E+00
DAV:   3    -0.790185679920E+02    0.27404E-01   -0.76031E-01   152   0.335E+00    0.144E+00
DAV:   4    -0.790025757804E+02    0.15992E-01   -0.24825E-01   144   0.203E+00    0.892E-01
DAV:   5    -0.790092578363E+02   -0.66821E-02   -0.20175E-01   136   0.226E+00    0.103E+00
DAV:   6    -0.789985885429E+02    0.10669E-01   -0.13794E-01   136   0.229E+00    0.345E-01
DAV:   7    -0.789985887531E+02   -0.21024E-06   -0.13575E-02   120   0.508E-01    0.125E-01
DAV:   8    -0.789986294710E+02   -0.40718E-04   -0.18482E-03   152   0.191E-01    0.560E-02
DAV:   9    -0.789987601540E+02   -0.13068E-03   -0.35750E-04    88   0.113E-01    0.345E-02
DAV:  10    -0.789988398143E+02   -0.79660E-04   -0.83090E-05    72   0.571E-02
  18 F= -.78998840E+02 E0= -.78980476E+02  d E =-.853755E+00
       N       E                     dE             d eps       ncg     rms          rms(c)
DAV:   1    -0.773313192408E+02    0.16674E+01   -0.27242E+02   112   0.137E+02    0.457E+00
DAV:   2    -0.807797473077E+02   -0.34484E+01   -0.36763E+01   112   0.302E+01    0.864E+00
DAV:   3    -0.800176198499E+02    0.76213E+00   -0.69243E+00   136   0.127E+01    0.315E+00
DAV:   4    -0.799840027711E+02    0.33617E-01   -0.11143E+00   136   0.540E+00    0.245E+00
DAV:   5    -0.800132551528E+02   -0.29252E-01   -0.14019E+00   136   0.562E+00    0.318E+00
DAV:   6    -0.799300990638E+02    0.83156E-01   -0.10348E+00   136   0.443E+00    0.905E-01
DAV:   7    -0.799317268789E+02   -0.16278E-02   -0.78640E-02   136   0.123E+00    0.569E-01
DAV:   8    -0.799298664042E+02    0.18605E-02   -0.11137E-02   144   0.536E-01    0.300E-01
DAV:   9    -0.799302939725E+02   -0.42757E-03   -0.51186E-03   144   0.322E-01    0.122E-01
DAV:  10    -0.799309109503E+02   -0.61698E-03   -0.27794E-03   128   0.180E-01    0.630E-02
DAV:  11    -0.799311161457E+02   -0.20520E-03   -0.60880E-04    88   0.104E-01    0.280E-02
DAV:  12    -0.799315134024E+02   -0.39726E-03   -0.10780E-04    72   0.445E-02    0.172E-02
DAV:  13    -0.799319729460E+02   -0.45954E-03   -0.67108E-05    72   0.266E-02    0.111E-02
DAV:  14    -0.799323508654E+02   -0.37792E-03   -0.50637E-05    80   0.235E-02    0.590E-03
DAV:  15    -0.799326203224E+02   -0.26946E-03   -0.37938E-05    80   0.195E-02    0.477E-03
DAV:  16    -0.799328484382E+02   -0.22812E-03   -0.37987E-05    80   0.136E-02    0.407E-03
DAV:  17    -0.799329150289E+02   -0.66591E-04   -0.12187E-05    72   0.107E-02
  19 F= -.79932915E+02 E0= -.79900229E+02  d E =-.178783E+01
       N       E                     dE             d eps       ncg     rms          rms(c)
DAV:   1    -0.805734871419E+02   -0.64064E+00   -0.41809E+01   104   0.506E+01    0.198E+00
DAV:   2    -0.808662255807E+02   -0.29274E+00   -0.40774E+00   128   0.104E+01    0.262E+00
DAV:   3    -0.808204030467E+02    0.45823E-01   -0.13563E+00   144   0.578E+00    0.193E+00
DAV:   4    -0.807870687865E+02    0.33334E-01   -0.47057E-01   136   0.330E+00    0.810E-01
DAV:   5    -0.807852901659E+02    0.17786E-02   -0.18793E-01   152   0.152E+00    0.642E-01
DAV:   6    -0.807887647695E+02   -0.34746E-02   -0.15428E-01   136   0.102E+00    0.799E-01
DAV:   7    -0.807815879874E+02    0.71768E-02   -0.66151E-02   144   0.644E-01    0.220E-01
DAV:   8    -0.807818636567E+02   -0.27567E-03   -0.62333E-03   120   0.235E-01    0.885E-02
DAV:   9    -0.807821525008E+02   -0.28884E-03   -0.74395E-04   120   0.105E-01    0.463E-02
DAV:  10    -0.807822915000E+02   -0.13900E-03   -0.12035E-04    72   0.714E-02    0.198E-02
DAV:  11    -0.807823914559E+02   -0.99956E-04   -0.65230E-05    64   0.350E-02
  20 F= -.80782391E+02 E0= -.80740140E+02  d E =-.849476E+00
       N       E                     dE             d eps       ncg     rms          rms(c)
DAV:   1    -0.807621859565E+02    0.20106E-01   -0.10463E+02   104   0.783E+01    0.334E+00
DAV:   2    -0.815559870935E+02   -0.79380E+00   -0.11079E+01   128   0.174E+01    0.470E+00
DAV:   3    -0.814014626972E+02    0.15452E+00   -0.43177E+00   144   0.792E+00    0.292E+00
DAV:   4    -0.813774891065E+02    0.23974E-01   -0.14573E+00   144   0.467E+00    0.250E+00
DAV:   5    -0.813127945310E+02    0.64695E-01   -0.83675E-01   144   0.311E+00    0.122E+00
DAV:   6    -0.813280451685E+02   -0.15251E-01   -0.53457E-01   136   0.251E+00    0.167E+00
DAV:   7    -0.812962288796E+02    0.31816E-01   -0.28462E-01   144   0.169E+00    0.325E-01
DAV:   8    -0.813002044075E+02   -0.39755E-02   -0.21452E-02   144   0.400E-01    0.193E-01
DAV:   9    -0.813001605460E+02    0.43861E-04   -0.36563E-03   128   0.188E-01    0.828E-02
DAV:  10    -0.813006481201E+02   -0.48757E-03   -0.40881E-04    96   0.709E-02    0.356E-02
DAV:  11    -0.813010457428E+02   -0.39762E-03   -0.10931E-04    80   0.431E-02    0.135E-02
DAV:  12    -0.813013306588E+02   -0.28492E-03   -0.47332E-05    72   0.263E-02    0.719E-03
DAV:  13    -0.813016318871E+02   -0.30123E-03   -0.56934E-05    80   0.193E-02    0.474E-03
DAV:  14    -0.813018650521E+02   -0.23316E-03   -0.26601E-05    72   0.143E-02    0.319E-03
DAV:  15    -0.813019978162E+02   -0.13276E-03   -0.28371E-05    80   0.103E-02    0.200E-03
DAV:  16    -0.813021035116E+02   -0.10570E-03   -0.14215E-05    72   0.864E-03    0.114E-03
DAV:  17    -0.813021415673E+02   -0.38056E-04   -0.75414E-06    72   0.617E-03
  21 F= -.81302142E+02 E0= -.81247894E+02  d E =-.136923E+01
       N       E                     dE             d eps       ncg     rms          rms(c)
DAV:   1    -0.818128536466E+02   -0.51075E+00   -0.23951E+01   104   0.400E+01    0.180E+00
DAV:   2    -0.822626694874E+02   -0.44982E+00   -0.58084E+00   120   0.821E+00    0.542E+00
DAV:   3    -0.819343461830E+02    0.32832E+00   -0.34907E+00   152   0.509E+00    0.128E+00
DAV:   4    -0.819564535563E+02   -0.22107E-01   -0.30621E-01   136   0.191E+00    0.115E+00
DAV:   5    -0.819439398713E+02    0.12514E-01   -0.20655E-01   144   0.170E+00    0.666E-01
DAV:   6    -0.819480581378E+02   -0.41183E-02   -0.13476E-01   136   0.188E+00    0.830E-01
DAV:   7    -0.819407941140E+02    0.72640E-02   -0.57277E-02   136   0.109E+00    0.148E-01
DAV:   8    -0.819419229131E+02   -0.11288E-02   -0.53971E-03   128   0.250E-01    0.730E-02
DAV:   9    -0.819421086580E+02   -0.18574E-03   -0.63713E-04    96   0.103E-01    0.389E-02
DAV:  10    -0.819422007099E+02   -0.92052E-04   -0.99407E-05    72   0.566E-02
  22 F= -.81942201E+02 E0= -.81897042E+02  d E =-.640059E+00
       N       E                     dE             d eps       ncg     rms          rms(c)
DAV:   1    -0.814710462642E+02    0.47106E+00   -0.16353E+02   104   0.102E+02    0.412E+00
DAV:   2    -0.835443594593E+02   -0.20733E+01   -0.25954E+01    96   0.205E+01    0.790E+00
DAV:   3    -0.826068999564E+02    0.93746E+00   -0.67737E+00   144   0.941E+00    0.295E+00
DAV:   4    -0.825190717082E+02    0.87828E-01   -0.78841E-01   136   0.424E+00    0.127E+00
DAV:   5    -0.825372165663E+02   -0.18145E-01   -0.46608E-01   128   0.352E+00    0.140E+00
DAV:   6    -0.825241881898E+02    0.13028E-01   -0.38116E-01   136   0.271E+00    0.102E+00
DAV:   7    -0.825214001601E+02    0.27880E-02   -0.13635E-01   136   0.183E+00    0.670E-01
DAV:   8    -0.825169571725E+02    0.44430E-02   -0.59683E-02   136   0.982E-01    0.233E-01
DAV:   9    -0.825179769443E+02   -0.10198E-02   -0.84585E-03   136   0.261E-01    0.125E-01
DAV:  10    -0.825181788621E+02   -0.20192E-03   -0.78751E-04   104   0.855E-02    0.535E-02
DAV:  11    -0.825184999815E+02   -0.32112E-03   -0.15632E-04    80   0.776E-02    0.139E-02
DAV:  12    -0.825186863750E+02   -0.18639E-03   -0.66781E-05    72   0.366E-02    0.783E-03
DAV:  13    -0.825188308184E+02   -0.14444E-03   -0.40622E-05    80   0.256E-02    0.894E-03
DAV:  14    -0.825189936191E+02   -0.16280E-03   -0.20157E-05    72   0.246E-02    0.344E-03
DAV:  15    -0.825191330387E+02   -0.13942E-03   -0.26276E-05    80   0.140E-02    0.399E-03
DAV:  16    -0.825191975250E+02   -0.64486E-04   -0.65987E-06    72   0.101E-02
  23 F= -.82519198E+02 E0= -.82489522E+02  d E =-.121706E+01
       N       E                     dE             d eps       ncg     rms          rms(c)
DAV:   1    -0.826348610370E+02   -0.11573E+00   -0.40231E+01   112   0.580E+01    0.182E+00
DAV:   2    -0.831202091977E+02   -0.48535E+00   -0.52301E+00   120   0.115E+01    0.415E+00
DAV:   3    -0.830406195184E+02    0.79590E-01   -0.19801E+00   152   0.481E+00    0.186E+00
DAV:   4    -0.830114533921E+02    0.29166E-01   -0.29469E-01   136   0.131E+00    0.948E-01
DAV:   5    -0.830090944613E+02    0.23589E-02   -0.11363E-01   128   0.128E+00    0.674E-01
DAV:   6    -0.830139210337E+02   -0.48266E-02   -0.89900E-02   136   0.144E+00    0.739E-01
DAV:   7    -0.830078340873E+02    0.60869E-02   -0.50450E-02   136   0.137E+00    0.150E-01
DAV:   8    -0.830086106599E+02   -0.77657E-03   -0.42567E-03   136   0.263E-01    0.725E-02
DAV:   9    -0.830087231928E+02   -0.11253E-03   -0.18678E-04    80   0.948E-02    0.448E-02
DAV:  10    -0.830088084753E+02   -0.85282E-04   -0.94737E-05    72   0.594E-02
  24 F= -.83008808E+02 E0= -.82977141E+02  d E =-.489611E+00
       N       E                     dE             d eps       ncg     rms          rms(c)
DAV:   1    -0.828257411577E+02    0.18298E+00   -0.37986E+01   112   0.564E+01    0.178E+00
DAV:   2    -0.832617105762E+02   -0.43597E+00   -0.46540E+00   128   0.111E+01    0.360E+00
DAV:   3    -0.832146993669E+02    0.47011E-01   -0.12541E+00   144   0.450E+00    0.192E+00
DAV:   4    -0.831811516087E+02    0.33548E-01   -0.27551E-01   128   0.136E+00    0.915E-01
DAV:   5    -0.831796103090E+02    0.15413E-02   -0.11725E-01   136   0.104E+00    0.674E-01
DAV:   6    -0.831832495156E+02   -0.36392E-02   -0.77864E-02   136   0.119E+00    0.664E-01
DAV:   7    -0.831782592892E+02    0.49902E-02   -0.42516E-02   136   0.117E+00    0.151E-01
DAV:   8    -0.831789133965E+02   -0.65411E-03   -0.35875E-03   136   0.238E-01    0.627E-02
DAV:   9    -0.831790625874E+02   -0.14919E-03   -0.19764E-04    80   0.894E-02    0.354E-02
DAV:  10    -0.831791715878E+02   -0.10900E-03   -0.85029E-05    72   0.467E-02    0.195E-02
DAV:  11    -0.831792369013E+02   -0.65313E-04   -0.41835E-05    56   0.305E-02
  25 F= -.83179237E+02 E0= -.83142054E+02  d E =-.660039E+00
       N       E                     dE             d eps       ncg     rms          rms(c)
DAV:   1    -0.835619077550E+02   -0.38274E+00   -0.26542E+01   112   0.428E+01    0.179E+00
DAV:   2    -0.839350308315E+02   -0.37312E+00   -0.37467E+00   128   0.928E+00    0.387E+00
DAV:   3    -0.837175513543E+02    0.21748E+00   -0.12252E+00   144   0.511E+00    0.113E+00
DAV:   4    -0.837262443605E+02   -0.86930E-02   -0.21838E-01   144   0.223E+00    0.114E+00
DAV:   5    -0.837223317004E+02    0.39127E-02   -0.17308E-01   136   0.137E+00    0.988E-01
DAV:   6    -0.837185659955E+02    0.37657E-02   -0.15587E-01   136   0.131E+00    0.651E-01
DAV:   7    -0.837140238745E+02    0.45421E-02   -0.30003E-02   136   0.485E-01    0.165E-01
DAV:   8    -0.837147970622E+02   -0.77319E-03   -0.21239E-03   136   0.206E-01    0.499E-02
DAV:   9    -0.837148973313E+02   -0.10027E-03   -0.22766E-04    88   0.908E-02    0.160E-02
DAV:  10    -0.837149901286E+02   -0.92797E-04   -0.49843E-05    72   0.356E-02
  26 F= -.83714990E+02 E0= -.83674232E+02  d E =-.535753E+00
       N       E                     dE             d eps       ncg     rms          rms(c)
DAV:   1    -0.837310287661E+02   -0.16131E-01   -0.16780E+01   112   0.343E+01    0.139E+00
DAV:   2    -0.839906048861E+02   -0.25958E+00   -0.24214E+00   128   0.752E+00    0.342E+00
DAV:   3    -0.838355596343E+02    0.15505E+00   -0.81562E-01   144   0.421E+00    0.937E-01
DAV:   4    -0.838483921825E+02   -0.12833E-01   -0.15576E-01   144   0.177E+00    0.116E+00
DAV:   5    -0.838379419652E+02    0.10450E-01   -0.11207E-01   136   0.109E+00    0.613E-01
DAV:   6    -0.838382681107E+02   -0.32615E-03   -0.78161E-02   136   0.115E+00    0.455E-01
DAV:   7    -0.838357776869E+02    0.24904E-02   -0.18595E-02   136   0.435E-01    0.130E-01
DAV:   8    -0.838362571031E+02   -0.47942E-03   -0.13545E-03   136   0.160E-01    0.308E-02
DAV:   9    -0.838363432178E+02   -0.86115E-04   -0.11644E-04    72   0.695E-02
  27 F= -.83836343E+02 E0= -.83792296E+02  d E =-.657106E+00
       N       E                     dE             d eps       ncg     rms          rms(c)
DAV:   1    -0.839322926401E+02   -0.96036E-01   -0.25556E+01   120   0.460E+01    0.135E+00
DAV:   2    -0.841843429959E+02   -0.25205E+00   -0.27663E+00   112   0.811E+00    0.176E+00
DAV:   3    -0.841970941964E+02   -0.12751E-01   -0.92937E-01   152   0.363E+00    0.246E+00
DAV:   4    -0.841581672221E+02    0.38927E-01   -0.55575E-01   152   0.124E+00    0.908E-01
DAV:   5    -0.841602398637E+02   -0.20726E-02   -0.11195E-01   144   0.155E+00    0.655E-01
DAV:   6    -0.841590355160E+02    0.12043E-02   -0.63358E-02   152   0.119E+00    0.392E-01
DAV:   7    -0.841581248543E+02    0.91066E-03   -0.25225E-02   136   0.533E-01    0.240E-01
DAV:   8    -0.841579399155E+02    0.18494E-03   -0.38829E-03   128   0.384E-01    0.518E-02
DAV:   9    -0.841581672346E+02   -0.22732E-03   -0.61790E-04   112   0.121E-01    0.454E-02
DAV:  10    -0.841582546160E+02   -0.87381E-04   -0.10280E-04    72   0.769E-02
  28 F= -.84158255E+02 E0= -.84112657E+02  d E =-.321911E+00
       N       E                     dE             d eps       ncg     rms          rms(c)
DAV:   1    -0.839168429077E+02    0.24132E+00   -0.46993E+01   120   0.616E+01    0.176E+00
DAV:   2    -0.843301264721E+02   -0.41328E+00   -0.47083E+00   112   0.108E+01    0.142E+00
DAV:   3    -0.843812544201E+02   -0.51128E-01   -0.10241E+00   152   0.481E+00    0.275E+00
DAV:   4    -0.843308635234E+02    0.50391E-01   -0.89313E-01   136   0.238E+00    0.139E+00
DAV:   5    -0.843258265021E+02    0.50370E-02   -0.23089E-01   152   0.156E+00    0.881E-01
DAV:   6    -0.843217915480E+02    0.40350E-02   -0.82111E-02   136   0.136E+00    0.346E-01
DAV:   7    -0.843225528576E+02   -0.76131E-03   -0.27076E-02   136   0.546E-01    0.230E-01
DAV:   8    -0.843221045686E+02    0.44829E-03   -0.66159E-03   136   0.426E-01    0.563E-02
DAV:   9    -0.843223652318E+02   -0.26066E-03   -0.61125E-04   104   0.127E-01    0.542E-02
DAV:  10    -0.843225050617E+02   -0.13983E-03   -0.12716E-04    72   0.840E-02    0.242E-02
DAV:  11    -0.843226252024E+02   -0.12014E-03   -0.85126E-05    88   0.364E-02    0.623E-03
DAV:  12    -0.843227588156E+02   -0.13361E-03   -0.18393E-05    64   0.223E-02    0.386E-03
DAV:  13    -0.843228804658E+02   -0.12165E-03   -0.16099E-05    72   0.139E-02    0.339E-03
DAV:  14    -0.843229887914E+02   -0.10833E-03   -0.10526E-05    64   0.102E-02    0.288E-03
DAV:  15    -0.843230751158E+02   -0.86324E-04   -0.15288E-05    72   0.938E-03
  29 F= -.84323075E+02 E0= -.84275725E+02  d E =-.486732E+00
       N       E                     dE             d eps       ncg     rms          rms(c)
DAV:   1    -0.844237501716E+02   -0.10076E+00   -0.16338E+01   120   0.384E+01    0.949E-01
DAV:   2    -0.845927622247E+02   -0.16901E+00   -0.18470E+00    96   0.637E+00    0.947E-01
DAV:   3    -0.845999583440E+02   -0.71961E-02   -0.30637E-01   144   0.255E+00    0.126E+00
DAV:   4    -0.845903868470E+02    0.95715E-02   -0.20248E-01   144   0.161E+00    0.923E-01
DAV:   5    -0.845869655642E+02    0.34213E-02   -0.85763E-02   144   0.756E-01    0.467E-01
DAV:   6    -0.845886041149E+02   -0.16386E-02   -0.35451E-02   152   0.941E-01    0.357E-01
DAV:   7    -0.845872287625E+02    0.13754E-02   -0.14698E-02   136   0.605E-01    0.812E-02
DAV:   8    -0.845875707573E+02   -0.34199E-03   -0.10376E-03   112   0.126E-01    0.290E-02
DAV:   9    -0.845876436725E+02   -0.72915E-04   -0.94455E-05    72   0.724E-02
  30 F= -.84587644E+02 E0= -.84540121E+02  d E =-.264569E+00
       N       E                     dE             d eps       ncg     rms          rms(c)
DAV:   1    -0.836054176836E+02    0.98215E+00   -0.15759E+02   112   0.108E+02    0.350E+00
DAV:   2    -0.858577486795E+02   -0.22523E+01   -0.24777E+01   112   0.237E+01    0.705E+00
DAV:   3    -0.851814457603E+02    0.67630E+00   -0.59992E+00   144   0.101E+01    0.267E+00
DAV:   4    -0.852139008611E+02   -0.32455E-01   -0.18120E+00   136   0.413E+00    0.286E+00
DAV:   5    -0.851311399090E+02    0.82761E-01   -0.73872E-01   136   0.399E+00    0.119E+00
DAV:   6    -0.851328009279E+02   -0.16610E-02   -0.20379E-01   144   0.227E+00    0.826E-01
DAV:   7    -0.851334867379E+02   -0.68581E-03   -0.13008E-01   136   0.944E-01    0.552E-01
DAV:   8    -0.851323110442E+02    0.11757E-02   -0.37431E-02   144   0.430E-01    0.159E-01
DAV:   9    -0.851331711875E+02   -0.86014E-03   -0.37656E-03   104   0.190E-01    0.116E-01
DAV:  10    -0.851334639420E+02   -0.29275E-03   -0.50832E-04    88   0.114E-01    0.389E-02
DAV:  11    -0.851336565672E+02   -0.19263E-03   -0.17409E-04    80   0.577E-02    0.177E-02
DAV:  12    -0.851338699373E+02   -0.21337E-03   -0.94331E-05    72   0.448E-02    0.949E-03
DAV:  13    -0.851339636132E+02   -0.93676E-04   -0.22320E-05    56   0.182E-02
  31 F= -.85133964E+02 E0= -.85084940E+02  d E =-.810888E+00
       N       E                     dE             d eps       ncg     rms          rms(c)
DAV:   1    -0.777537329880E+02    0.73801E+01   -0.69441E+02   120   0.201E+02    0.786E+00
DAV:   2    -0.875555921864E+02   -0.98019E+01   -0.10040E+02   128   0.515E+01    0.137E+01
DAV:   3    -0.853459890693E+02    0.22096E+01   -0.27952E+01   144   0.231E+01    0.502E+00
DAV:   4    -0.855507208662E+02   -0.20473E+00   -0.10077E+01   136   0.797E+00    0.592E+00
DAV:   5    -0.851138666051E+02    0.43685E+00   -0.24399E+00   136   0.665E+00    0.214E+00
DAV:   6    -0.851485943999E+02   -0.34728E-01   -0.81485E-01   136   0.280E+00    0.228E+00
DAV:   7    -0.851184011878E+02    0.30193E-01   -0.10853E+00   152   0.152E+00    0.124E+00
DAV:   8    -0.851121643574E+02    0.62368E-02   -0.13342E-01   136   0.128E+00    0.518E-01
DAV:   9    -0.851123666025E+02   -0.20225E-03   -0.14114E-02   128   0.480E-01    0.245E-01
DAV:  10    -0.851135193382E+02   -0.11527E-02   -0.16663E-03   128   0.204E-01    0.148E-01
DAV:  11    -0.851144413430E+02   -0.92200E-03   -0.24391E-03   128   0.220E-01    0.917E-02
DAV:  12    -0.851146170210E+02   -0.17568E-03   -0.38330E-04    88   0.110E-01    0.288E-02
DAV:  13    -0.851150107865E+02   -0.39377E-03   -0.13195E-04    72   0.476E-02    0.109E-02
DAV:  14    -0.851154132107E+02   -0.40242E-03   -0.59945E-05    72   0.344E-02    0.684E-03
DAV:  15    -0.851157671739E+02   -0.35396E-03   -0.50062E-05    72   0.190E-02    0.562E-03
DAV:  16    -0.851160211964E+02   -0.25402E-03   -0.37839E-05    72   0.145E-02    0.580E-03
DAV:  17    -0.851161714187E+02   -0.15022E-03   -0.24307E-05    72   0.119E-02    0.220E-03
DAV:  18    -0.851162372600E+02   -0.65841E-04   -0.10522E-05    64   0.810E-03
  32 F= -.85116237E+02 E0= -.85059816E+02  d E =-.793162E+00
       N       E                     dE             d eps       ncg     rms          rms(c)
DAV:   1    -0.835775228188E+02    0.15386E+01   -0.16248E+02   112   0.113E+02    0.347E+00
DAV:   2    -0.857365720345E+02   -0.21590E+01   -0.24164E+01   104   0.238E+01    0.553E+00
DAV:   3    -0.853633946247E+02    0.37318E+00   -0.39765E+00   152   0.839E+00    0.266E+00
DAV:   4    -0.853211805440E+02    0.42214E-01   -0.73522E-01   128   0.353E+00    0.175E+00
DAV:   5    -0.853145817081E+02    0.65988E-02   -0.34999E-01   144   0.165E+00    0.145E+00
DAV:   6    -0.853727790151E+02   -0.58197E-01   -0.10123E+00   152   0.303E+00    0.286E+00
DAV:   7    -0.852984878074E+02    0.74291E-01   -0.66860E-01   144   0.341E+00    0.703E-01
DAV:   8    -0.853023448682E+02   -0.38571E-02   -0.35251E-02   128   0.813E-01    0.272E-01
DAV:   9    -0.853039209625E+02   -0.15761E-02   -0.34180E-03   144   0.284E-01    0.152E-01
DAV:  10    -0.853044760989E+02   -0.55514E-03   -0.18600E-03   128   0.190E-01    0.312E-02
DAV:  11    -0.853047730801E+02   -0.29698E-03   -0.19334E-04    88   0.788E-02    0.174E-02
DAV:  12    -0.853050152934E+02   -0.24221E-03   -0.62110E-05    80   0.344E-02    0.789E-03
DAV:  13    -0.853051725578E+02   -0.15726E-03   -0.20832E-05    56   0.180E-02    0.643E-03
DAV:  14    -0.853053759303E+02   -0.20337E-03   -0.35590E-05    72   0.161E-02    0.434E-03
DAV:  15    -0.853054975572E+02   -0.12163E-03   -0.17344E-05    64   0.133E-02    0.263E-03
DAV:  16    -0.853055840580E+02   -0.86501E-04   -0.88139E-06    56   0.882E-03
  33 F= -.85305584E+02 E0= -.85251488E+02  d E =-.982509E+00
       N       E                     dE             d eps       ncg     rms          rms(c)
DAV:   1    -0.852537899921E+02    0.51708E-01   -0.31951E+01   112   0.544E+01    0.157E+00
DAV:   2    -0.857134741158E+02   -0.45968E+00   -0.50943E+00   112   0.104E+01    0.276E+00
DAV:   3    -0.856372096064E+02    0.76265E-01   -0.15503E+00   136   0.458E+00    0.151E+00
DAV:   4    -0.856251490181E+02    0.12061E-01   -0.18516E-01   144   0.230E+00    0.724E-01
DAV:   5    -0.856288645063E+02   -0.37155E-02   -0.98954E-02   144   0.133E+00    0.796E-01
DAV:   6    -0.856298281860E+02   -0.96368E-03   -0.12868E-01   144   0.114E+00    0.745E-01
DAV:   7    -0.856248039601E+02    0.50242E-02   -0.47325E-02   136   0.991E-01    0.187E-01
DAV:   8    -0.856255780377E+02   -0.77408E-03   -0.34840E-03   128   0.201E-01    0.556E-02
DAV:   9    -0.856259355163E+02   -0.35748E-03   -0.29674E-04    88   0.949E-02    0.236E-02
DAV:  10    -0.856260385887E+02   -0.10307E-03   -0.65609E-05    56   0.436E-02    0.114E-02
DAV:  11    -0.856260913106E+02   -0.52722E-04   -0.23466E-05    48   0.243E-02
  34 F= -.85626091E+02 E0= -.85569196E+02  d E =-.320507E+00
       N       E                     dE             d eps       ncg     rms          rms(c)
DAV:   1    -0.830316613252E+02    0.25944E+01   -0.32390E+02   120   0.148E+02    0.568E+00
DAV:   2    -0.871494884079E+02   -0.41178E+01   -0.46032E+01    96   0.340E+01    0.725E+00
DAV:   3    -0.864828732544E+02    0.66662E+00   -0.12318E+01   160   0.136E+01    0.382E+00
DAV:   4    -0.863775890040E+02    0.10528E+00   -0.23434E+00   136   0.629E+00    0.288E+00
DAV:   5    -0.863433574848E+02    0.34232E-01   -0.14736E+00   136   0.335E+00    0.224E+00
DAV:   6    -0.863073710504E+02    0.35986E-01   -0.28430E-01   160   0.208E+00    0.818E-01
DAV:   7    -0.863129927197E+02   -0.56217E-02   -0.48150E-02   136   0.129E+00    0.297E-01
DAV:   8    -0.863143740585E+02   -0.13813E-02   -0.24252E-02   144   0.784E-01    0.264E-01
DAV:   9    -0.863144965956E+02   -0.12254E-03   -0.10015E-02   136   0.471E-01    0.175E-01
DAV:  10    -0.863145979672E+02   -0.10137E-03   -0.18788E-03   112   0.157E-01    0.722E-02
DAV:  11    -0.863151126915E+02   -0.51472E-03   -0.33559E-04    88   0.850E-02    0.325E-02
DAV:  12    -0.863154402619E+02   -0.32757E-03   -0.12713E-04    80   0.500E-02    0.109E-02
DAV:  13    -0.863157052935E+02   -0.26503E-03   -0.43879E-05    80   0.270E-02    0.645E-03
DAV:  14    -0.863159761354E+02   -0.27084E-03   -0.33854E-05    80   0.173E-02    0.513E-03
DAV:  15    -0.863162481111E+02   -0.27198E-03   -0.39486E-05    80   0.143E-02    0.283E-03
DAV:  16    -0.863163866365E+02   -0.13853E-03   -0.21603E-05    80   0.106E-02    0.227E-03
DAV:  17    -0.863164653983E+02   -0.78762E-04   -0.11048E-05    72   0.793E-03
  35 F= -.86316465E+02 E0= -.86262284E+02  d E =-.101088E+01
       N       E                     dE             d eps       ncg     rms          rms(c)
DAV:   1    -0.672714572131E+02    0.19045E+02   -0.13764E+03   120   0.280E+02    0.126E+01
DAV:   2    -0.840885014549E+02   -0.16817E+02   -0.17541E+02   104   0.677E+01    0.731E+00
DAV:   3    -0.843417214798E+02   -0.25322E+00   -0.18511E+01   152   0.234E+01    0.478E+00
DAV:   4    -0.840305516853E+02    0.31117E+00   -0.23210E+00   152   0.754E+00    0.374E+00
DAV:   5    -0.840535811975E+02   -0.23030E-01   -0.12528E+00   144   0.704E+00    0.306E+00
DAV:   6    -0.840369582078E+02    0.16623E-01   -0.19364E+00   144   0.544E+00    0.195E+00
DAV:   7    -0.839799001195E+02    0.57058E-01   -0.28296E-01   128   0.266E+00    0.447E-01
DAV:   8    -0.839824163042E+02   -0.25162E-02   -0.37230E-02   152   0.954E-01    0.283E-01
DAV:   9    -0.839826458731E+02   -0.22957E-03   -0.10243E-02   152   0.449E-01    0.170E-01
DAV:  10    -0.839838612714E+02   -0.12154E-02   -0.17545E-03   136   0.186E-01    0.814E-02
DAV:  11    -0.839846260975E+02   -0.76483E-03   -0.49569E-04    88   0.868E-02    0.397E-02
DAV:  12    -0.839850299743E+02   -0.40388E-03   -0.15627E-04    88   0.659E-02    0.163E-02
DAV:  13    -0.839856822804E+02   -0.65231E-03   -0.13255E-04    88   0.422E-02    0.122E-02
DAV:  14    -0.839861396591E+02   -0.45738E-03   -0.47191E-05    80   0.283E-02    0.694E-03
DAV:  15    -0.839866431597E+02   -0.50350E-03   -0.95134E-05    88   0.217E-02    0.419E-03
DAV:  16    -0.839868569967E+02   -0.21384E-03   -0.22760E-05    72   0.132E-02    0.277E-03
DAV:  17    -0.839869887469E+02   -0.13175E-03   -0.15242E-05    72   0.944E-03    0.159E-03
DAV:  18    -0.839870507336E+02   -0.61987E-04   -0.92530E-06    56   0.667E-03
  36 F= -.83987051E+02 E0= -.83936984E+02  d E =0.131853E+01
       N       E                     dE             d eps       ncg     rms          rms(c)
DAV:   1    -0.745572378562E+02    0.94298E+01   -0.11172E+03   128   0.261E+02    0.888E+00
DAV:   2    -0.897927892450E+02   -0.15236E+02   -0.15327E+02   120   0.592E+01    0.236E+01
DAV:   3    -0.867653228805E+02    0.30275E+01   -0.64914E+01   144   0.356E+01    0.683E+00
DAV:   4    -0.864809088917E+02    0.28441E+00   -0.30190E+00   136   0.708E+00    0.509E+00
DAV:   5    -0.866063323434E+02   -0.12542E+00   -0.26591E+00   144   0.614E+00    0.549E+00
DAV:   6    -0.865496085369E+02    0.56724E-01   -0.30695E+00   136   0.885E+00    0.480E+00
DAV:   7    -0.865308924071E+02    0.18716E-01   -0.13627E+00   136   0.298E+00    0.411E+00
DAV:   8    -0.864275018183E+02    0.10339E+00   -0.83886E-01   152   0.190E+00    0.224E+00
DAV:   9    -0.864147356301E+02    0.12766E-01   -0.47349E-01   144   0.151E+00    0.204E+00
DAV:  10    -0.863854646180E+02    0.29271E-01   -0.65732E-02   152   0.877E-01    0.130E+00
DAV:  11    -0.863708531276E+02    0.14611E-01   -0.28923E-02   152   0.789E-01    0.615E-01
DAV:  12    -0.863691291460E+02    0.17240E-02   -0.16589E-02   152   0.731E-01    0.133E-01
DAV:  13    -0.863707290286E+02   -0.15999E-02   -0.24075E-03   136   0.205E-01    0.909E-02
DAV:  14    -0.863711964565E+02   -0.46743E-03   -0.33301E-04   112   0.839E-02    0.447E-02
DAV:  15    -0.863717447736E+02   -0.54832E-03   -0.18533E-04    80   0.531E-02    0.193E-02
DAV:  16    -0.863719926682E+02   -0.24789E-03   -0.50849E-05    72   0.356E-02    0.216E-02
DAV:  17    -0.863722864749E+02   -0.29381E-03   -0.53457E-05    80   0.430E-02    0.707E-03
DAV:  18    -0.863725627238E+02   -0.27625E-03   -0.52439E-05    80   0.239E-02    0.644E-03
DAV:  19    -0.863726862834E+02   -0.12356E-03   -0.12752E-05    72   0.119E-02    0.671E-03
DAV:  20    -0.863727560506E+02   -0.69767E-04   -0.10428E-05    72   0.999E-03
  37 F= -.86372756E+02 E0= -.86319446E+02  d E =-.106717E+01
       N       E                     dE             d eps       ncg     rms          rms(c)
DAV:   1    -0.866068964518E+02   -0.23421E+00   -0.41836E+01   112   0.587E+01    0.214E+00
DAV:   2    -0.871829597916E+02   -0.57606E+00   -0.68953E+00   120   0.122E+01    0.372E+00
DAV:   3    -0.869864996309E+02    0.19646E+00   -0.13960E+00   144   0.482E+00    0.128E+00
DAV:   4    -0.869956717991E+02   -0.91722E-02   -0.29960E-01   136   0.174E+00    0.135E+00
DAV:   5    -0.869769365045E+02    0.18735E-01   -0.23148E-01   136   0.187E+00    0.778E-01
DAV:   6    -0.869826370651E+02   -0.57006E-02   -0.13913E-01   136   0.241E+00    0.842E-01
DAV:   7    -0.869737151066E+02    0.89220E-02   -0.60819E-02   136   0.163E+00    0.174E-01
DAV:   8    -0.869747802471E+02   -0.10651E-02   -0.46035E-03   128   0.302E-01    0.611E-02
DAV:   9    -0.869749840489E+02   -0.20380E-03   -0.32658E-04   104   0.122E-01    0.247E-02
DAV:  10    -0.869750992561E+02   -0.11521E-03   -0.76359E-05    72   0.526E-02    0.941E-03
DAV:  11    -0.869752062457E+02   -0.10699E-03   -0.31501E-05    72   0.304E-02    0.534E-03
DAV:  12    -0.869753081485E+02   -0.10190E-03   -0.17313E-05    64   0.166E-02    0.316E-03
DAV:  13    -0.869754178929E+02   -0.10974E-03   -0.15381E-05    64   0.128E-02    0.191E-03
DAV:  14    -0.869754979599E+02   -0.80067E-04   -0.13177E-05    64   0.936E-03
  38 F= -.86975498E+02 E0= -.86924779E+02  d E =-.602742E+00
       N       E                     dE             d eps       ncg     rms          rms(c)
DAV:   1    -0.865914197268E+02    0.38400E+00   -0.73994E+01   112   0.777E+01    0.272E+00
DAV:   2    -0.874940190117E+02   -0.90260E+00   -0.10619E+01   120   0.161E+01    0.393E+00
DAV:   3    -0.872718765171E+02    0.22214E+00   -0.15607E+00   136   0.564E+00    0.139E+00
DAV:   4    -0.872678733308E+02    0.40032E-02   -0.28155E-01   128   0.179E+00    0.112E+00
DAV:   5    -0.872654136702E+02    0.24597E-02   -0.29691E-01   144   0.150E+00    0.973E-01
DAV:   6    -0.872607545767E+02    0.46591E-02   -0.13672E-01   136   0.216E+00    0.702E-01
DAV:   7    -0.872555682172E+02    0.51864E-02   -0.50977E-02   144   0.158E+00    0.242E-01
DAV:   8    -0.872560014291E+02   -0.43321E-03   -0.45572E-03   136   0.446E-01    0.670E-02
DAV:   9    -0.872563659861E+02   -0.36456E-03   -0.52201E-04   112   0.128E-01    0.230E-02
DAV:  10    -0.872565448202E+02   -0.17883E-03   -0.61013E-05    72   0.497E-02    0.110E-02
DAV:  11    -0.872567724212E+02   -0.22760E-03   -0.54780E-05    72   0.278E-02    0.769E-03
DAV:  12    -0.872569249731E+02   -0.15255E-03   -0.14924E-05    72   0.206E-02    0.399E-03
DAV:  13    -0.872571308253E+02   -0.20585E-03   -0.30971E-05    72   0.151E-02    0.357E-03
DAV:  14    -0.872572571103E+02   -0.12628E-03   -0.15480E-05    64   0.119E-02    0.227E-03
DAV:  15    -0.872573175152E+02   -0.60405E-04   -0.92907E-06    64   0.766E-03
  39 F= -.87257318E+02 E0= -.87211599E+02  d E =-.884561E+00
       N       E                     dE             d eps       ncg     rms          rms(c)
DAV:   1    -0.875012550098E+02   -0.24400E+00   -0.23024E+01   112   0.422E+01    0.143E+00
DAV:   2    -0.877354338776E+02   -0.23418E+00   -0.26925E+00   128   0.827E+00    0.179E+00
DAV:   3    -0.877033623014E+02    0.32072E-01   -0.39889E-01   144   0.377E+00    0.974E-01
DAV:   4    -0.876988249915E+02    0.45373E-02   -0.55877E-02   136   0.169E+00    0.585E-01
DAV:   5    -0.877044820095E+02   -0.56570E-02   -0.10521E-01   136   0.168E+00    0.793E-01
DAV:   6    -0.876972250028E+02    0.72570E-02   -0.55925E-02   136   0.149E+00    0.226E-01
DAV:   7    -0.876972492934E+02   -0.24291E-04   -0.95731E-03   136   0.500E-01    0.103E-01
DAV:   8    -0.876973723388E+02   -0.12305E-03   -0.14028E-03   120   0.222E-01    0.490E-02
DAV:   9    -0.876975480142E+02   -0.17568E-03   -0.20599E-04    72   0.104E-01    0.152E-02
DAV:  10    -0.876976482706E+02   -0.10026E-03   -0.59059E-05    72   0.439E-02    0.763E-03
DAV:  11    -0.876977417931E+02   -0.93523E-04   -0.23061E-05    64   0.224E-02
  40 F= -.87697742E+02 E0= -.87657528E+02  d E =-.440424E+00
       N       E                     dE             d eps       ncg     rms          rms(c)
DAV:   1    -0.873528549976E+02    0.34479E+00   -0.73582E+01   112   0.742E+01    0.229E+00
DAV:   2    -0.880844169168E+02   -0.73156E+00   -0.83590E+00   112   0.146E+01    0.265E+00
DAV:   3    -0.880321457498E+02    0.52271E-01   -0.10751E+00   128   0.513E+00    0.152E+00
DAV:   4    -0.880157114676E+02    0.16434E-01   -0.14419E-01   136   0.224E+00    0.914E-01
DAV:   5    -0.880409812853E+02   -0.25270E-01   -0.22294E-01   144   0.294E+00    0.151E+00
DAV:   6    -0.880127123961E+02    0.28269E-01   -0.16237E-01   136   0.294E+00    0.356E-01
DAV:   7    -0.880131414931E+02   -0.42910E-03   -0.23804E-02   144   0.686E-01    0.170E-01
DAV:   8    -0.880132929366E+02   -0.15144E-03   -0.43933E-03   144   0.350E-01    0.957E-02
DAV:   9    -0.880136926402E+02   -0.39970E-03   -0.54894E-04   104   0.154E-01    0.385E-02
DAV:  10    -0.880140396822E+02   -0.34704E-03   -0.15443E-04    80   0.632E-02    0.137E-02
DAV:  11    -0.880142697635E+02   -0.23008E-03   -0.57346E-05    80   0.407E-02    0.756E-03
DAV:  12    -0.880145583553E+02   -0.28859E-03   -0.38037E-05    80   0.227E-02    0.517E-03
DAV:  13    -0.880148166631E+02   -0.25831E-03   -0.37996E-05    80   0.165E-02    0.388E-03
DAV:  14    -0.880150110723E+02   -0.19441E-03   -0.31138E-05    80   0.136E-02    0.203E-03
DAV:  15    -0.880151029097E+02   -0.91837E-04   -0.13274E-05    72   0.104E-02
  41 F= -.88015103E+02 E0= -.87979971E+02  d E =-.757785E+00
       N       E                     dE             d eps       ncg     rms          rms(c)
DAV:   1    -0.883668198282E+02   -0.35181E+00   -0.19413E+01    96   0.294E+01    0.121E+00
DAV:   2    -0.884320537967E+02   -0.65234E-01   -0.12241E+00   136   0.544E+00    0.113E+00
DAV:   3    -0.884202738355E+02    0.11780E-01   -0.20244E-01   136   0.265E+00    0.832E-01
DAV:   4    -0.884165910686E+02    0.36828E-02   -0.11657E-01   144   0.211E+00    0.714E-01
DAV:   5    -0.884123621007E+02    0.42290E-02   -0.59299E-02   136   0.147E+00    0.338E-01
DAV:   6    -0.884126142356E+02   -0.25213E-03   -0.27964E-02   144   0.744E-01    0.270E-01
DAV:   7    -0.884116547776E+02    0.95946E-03   -0.78171E-03   136   0.398E-01    0.700E-02
DAV:   8    -0.884118933462E+02   -0.23857E-03   -0.53570E-04    96   0.969E-02    0.305E-02
DAV:   9    -0.884120145302E+02   -0.12118E-03   -0.96648E-05    80   0.476E-02    0.185E-02
DAV:  10    -0.884121197882E+02   -0.10526E-03   -0.35821E-05    72   0.344E-02    0.840E-03
DAV:  11    -0.884122030350E+02   -0.83247E-04   -0.20543E-05    80   0.191E-02
  42 F= -.88412203E+02 E0= -.88378654E+02  d E =-.397100E+00
       N       E                     dE             d eps       ncg     rms          rms(c)
DAV:   1    -0.885104609924E+02   -0.98341E-01   -0.22083E+01    96   0.313E+01    0.131E+00
DAV:   2    -0.885903920245E+02   -0.79931E-01   -0.14820E+00   136   0.607E+00    0.145E+00
DAV:   3    -0.885709737236E+02    0.19418E-01   -0.31663E-01   144   0.377E+00    0.102E+00
DAV:   4    -0.885614893390E+02    0.94844E-02   -0.13104E-01   136   0.210E+00    0.661E-01
DAV:   5    -0.885599695310E+02    0.15198E-02   -0.61191E-02   144   0.127E+00    0.433E-01
DAV:   6    -0.885587475676E+02    0.12220E-02   -0.33837E-02   136   0.786E-01    0.242E-01
DAV:   7    -0.885582234077E+02    0.52416E-03   -0.57245E-03   136   0.339E-01    0.658E-02
DAV:   8    -0.885584996831E+02   -0.27628E-03   -0.44491E-04    96   0.938E-02    0.293E-02
DAV:   9    -0.885586585976E+02   -0.15891E-03   -0.79602E-05    72   0.432E-02    0.179E-02
DAV:  10    -0.885588249342E+02   -0.16634E-03   -0.45972E-05    80   0.322E-02    0.837E-03
DAV:  11    -0.885589418982E+02   -0.11696E-03   -0.15397E-05    72   0.183E-02    0.356E-03
DAV:  12    -0.885590995113E+02   -0.15761E-03   -0.27575E-05    80   0.134E-02    0.354E-03
DAV:  13    -0.885591762876E+02   -0.76776E-04   -0.99219E-06    72   0.110E-02
  43 F= -.88559176E+02 E0= -.88527052E+02  d E =-.544073E+00
       N       E                     dE             d eps       ncg     rms          rms(c)
DAV:   1    -0.888857297662E+02   -0.32663E+00   -0.19776E+01    96   0.291E+01    0.132E+00
DAV:   2    -0.890115143528E+02   -0.12578E+00   -0.17624E+00   136   0.676E+00    0.230E+00
DAV:   3    -0.889472022598E+02    0.64312E-01   -0.56783E-01   136   0.531E+00    0.997E-01
DAV:   4    -0.889377348205E+02    0.94674E-02   -0.83712E-02   144   0.169E+00    0.470E-01
DAV:   5    -0.889409378504E+02   -0.32030E-02   -0.53365E-02   136   0.111E+00    0.516E-01
DAV:   6    -0.889381146205E+02    0.28232E-02   -0.32632E-02   144   0.827E-01    0.184E-01
DAV:   7    -0.889379792652E+02    0.13536E-03   -0.41895E-03   136   0.269E-01    0.656E-02
DAV:   8    -0.889382271820E+02   -0.24792E-03   -0.44859E-04   112   0.884E-02    0.277E-02
DAV:   9    -0.889383717953E+02   -0.14461E-03   -0.51177E-05    72   0.365E-02    0.119E-02
DAV:  10    -0.889385250405E+02   -0.15325E-03   -0.37831E-05    72   0.222E-02    0.578E-03
DAV:  11    -0.889386601653E+02   -0.13512E-03   -0.19258E-05    72   0.159E-02    0.312E-03
DAV:  12    -0.889387893355E+02   -0.12917E-03   -0.21080E-05    72   0.120E-02    0.266E-03
DAV:  13    -0.889388691489E+02   -0.79813E-04   -0.13140E-05    56   0.953E-03
  44 F= -.88938869E+02 E0= -.88905789E+02  d E =-.379693E+00
       N       E                     dE             d eps       ncg     rms          rms(c)
DAV:   1    -0.890435300161E+02   -0.10474E+00   -0.38707E+01    96   0.406E+01    0.191E+00
DAV:   2    -0.892762133684E+02   -0.23268E+00   -0.35776E+00   136   0.967E+00    0.317E+00
DAV:   3    -0.891671244818E+02    0.10909E+00   -0.12671E+00   136   0.635E+00    0.164E+00
DAV:   4    -0.891356110644E+02    0.31513E-01   -0.18911E-01   144   0.242E+00    0.626E-01
DAV:   5    -0.891357117230E+02   -0.10066E-03   -0.50573E-02   128   0.113E+00    0.301E-01
DAV:   6    -0.891363729251E+02   -0.66120E-03   -0.15472E-02   144   0.591E-01    0.192E-01
DAV:   7    -0.891365612778E+02   -0.18835E-03   -0.99415E-03   136   0.421E-01    0.184E-01
DAV:   8    -0.891363332637E+02    0.22801E-03   -0.27889E-03   144   0.240E-01    0.441E-02
DAV:   9    -0.891366365136E+02   -0.30325E-03   -0.15943E-04    80   0.646E-02    0.188E-02
DAV:  10    -0.891368678301E+02   -0.23132E-03   -0.64634E-05    56   0.332E-02    0.861E-03
DAV:  11    -0.891370468291E+02   -0.17900E-03   -0.35509E-05    72   0.209E-02    0.540E-03
DAV:  12    -0.891372570834E+02   -0.21025E-03   -0.28514E-05    64   0.161E-02    0.451E-03
DAV:  13    -0.891373908310E+02   -0.13375E-03   -0.24384E-05    64   0.116E-02    0.273E-03
DAV:  14    -0.891375065795E+02   -0.11575E-03   -0.17018E-05    64   0.108E-02    0.172E-03
DAV:  15    -0.891375526198E+02   -0.46040E-04   -0.94865E-06    48   0.713E-03
  45 F= -.89137553E+02 E0= -.89100749E+02  d E =-.578376E+00
       N       E                     dE             d eps       ncg     rms          rms(c)
DAV:   1    -0.893929318330E+02   -0.25543E+00   -0.24280E+01   112   0.368E+01    0.162E+00
DAV:   2    -0.895109401333E+02   -0.11801E+00   -0.21925E+00   120   0.674E+00    0.119E+00
DAV:   3    -0.894912877378E+02    0.19652E-01   -0.21267E-01   144   0.209E+00    0.818E-01
DAV:   4    -0.894876569182E+02    0.36308E-02   -0.94630E-02   136   0.176E+00    0.588E-01
DAV:   5    -0.894856333681E+02    0.20236E-02   -0.45902E-02   136   0.144E+00    0.385E-01
DAV:   6    -0.894859454428E+02   -0.31207E-03   -0.30405E-02   136   0.110E+00    0.362E-01
DAV:   7    -0.894844620853E+02    0.14834E-02   -0.11201E-02   136   0.614E-01    0.671E-02
DAV:   8    -0.894848322254E+02   -0.37014E-03   -0.59580E-04   112   0.114E-01    0.320E-02
DAV:   9    -0.894849945514E+02   -0.16233E-03   -0.72660E-05    72   0.524E-02    0.102E-02
DAV:  10    -0.894850932275E+02   -0.98676E-04   -0.31773E-05    72   0.259E-02
  46 F= -.89485093E+02 E0= -.89443511E+02  d E =-.347541E+00
       N       E                     dE             d eps       ncg     rms          rms(c)
DAV:   1    -0.895137828439E+02   -0.28788E-01   -0.13936E+01   112   0.280E+01    0.130E+00
DAV:   2    -0.895817677420E+02   -0.67985E-01   -0.13210E+00   120   0.516E+00    0.105E+00
DAV:   3    -0.895690060951E+02    0.12762E-01   -0.17881E-01   136   0.209E+00    0.753E-01
DAV:   4    -0.895637242274E+02    0.52819E-02   -0.67124E-02   136   0.154E+00    0.415E-01
DAV:   5    -0.895642513043E+02   -0.52708E-03   -0.28857E-02   136   0.120E+00    0.388E-01
DAV:   6    -0.895632564874E+02    0.99482E-03   -0.22932E-02   136   0.919E-01    0.235E-01
DAV:   7    -0.895628600202E+02    0.39647E-03   -0.54099E-03   136   0.393E-01    0.514E-02
DAV:   8    -0.895631168263E+02   -0.25681E-03   -0.32915E-04    96   0.884E-02    0.236E-02
DAV:   9    -0.895632797795E+02   -0.16295E-03   -0.60395E-05    72   0.416E-02    0.950E-03
DAV:  10    -0.895633781936E+02   -0.98414E-04   -0.23159E-05    56   0.212E-02
  47 F= -.89563378E+02 E0= -.89517455E+02  d E =-.425826E+00
       N       E                     dE             d eps       ncg     rms          rms(c)
DAV:   1    -0.897749964722E+02   -0.21172E+00   -0.29635E+01   104   0.427E+01    0.160E+00
DAV:   2    -0.899635602269E+02   -0.18856E+00   -0.24853E+00   112   0.953E+00    0.205E+00
DAV:   3    -0.899324223870E+02    0.31138E-01   -0.54761E-01   160   0.470E+00    0.101E+00
DAV:   4    -0.899200574550E+02    0.12365E-01   -0.10548E-01   136   0.239E+00    0.442E-01
DAV:   5    -0.899204757628E+02   -0.41831E-03   -0.29778E-02   128   0.100E+00    0.229E-01
DAV:   6    -0.899207766406E+02   -0.30088E-03   -0.69532E-03   136   0.377E-01    0.169E-01
DAV:   7    -0.899207918895E+02   -0.15249E-04   -0.36730E-03   136   0.261E-01    0.100E-01
DAV:   8    -0.899209050618E+02   -0.11317E-03   -0.83183E-04    96   0.132E-01    0.286E-02
DAV:   9    -0.899210809116E+02   -0.17585E-03   -0.10161E-04    72   0.567E-02    0.112E-02
DAV:  10    -0.899212106906E+02   -0.12978E-03   -0.32932E-05    72   0.282E-02    0.561E-03
DAV:  11    -0.899213725125E+02   -0.16182E-03   -0.21075E-05    64   0.176E-02    0.359E-03
DAV:  12    -0.899215222416E+02   -0.14973E-03   -0.21800E-05    64   0.133E-02    0.280E-03
DAV:  13    -0.899216334983E+02   -0.11126E-03   -0.15438E-05    56   0.118E-02    0.149E-03
DAV:  14    -0.899217059319E+02   -0.72434E-04   -0.14360E-05    64   0.918E-03
  48 F= -.89921706E+02 E0= -.89871142E+02  d E =-.358328E+00
       N       E                     dE             d eps       ncg     rms          rms(c)
DAV:   1    -0.899362294391E+02   -0.14596E-01   -0.10947E+01   112   0.259E+01    0.100E+00
DAV:   2    -0.900013766206E+02   -0.65147E-01   -0.91018E-01   112   0.561E+00    0.126E+00
DAV:   3    -0.899889479586E+02    0.12429E-01   -0.20252E-01   152   0.304E+00    0.628E-01
DAV:   4    -0.899843666689E+02    0.45813E-02   -0.39130E-02   128   0.141E+00    0.245E-01
DAV:   5    -0.899849121955E+02   -0.54553E-03   -0.99577E-03   120   0.576E-01    0.165E-01
DAV:   6    -0.899849333816E+02   -0.21186E-04   -0.40206E-03   136   0.286E-01    0.127E-01
DAV:   7    -0.899848656621E+02    0.67720E-04   -0.15478E-03   120   0.179E-01    0.442E-02
DAV:   8    -0.899849434807E+02   -0.77819E-04   -0.15865E-04    80   0.634E-02
  49 F= -.89984943E+02 E0= -.89931955E+02  d E =-.421565E+00
       N       E                     dE             d eps       ncg     rms          rms(c)
DAV:   1    -0.900865867253E+02   -0.10172E+00   -0.18927E+01   112   0.374E+01    0.127E+00
DAV:   2    -0.902118163004E+02   -0.12523E+00   -0.18068E+00   112   0.699E+00    0.114E+00
DAV:   3    -0.902063374379E+02    0.54789E-02   -0.23366E-01   152   0.282E+00    0.882E-01
DAV:   4    -0.901988621655E+02    0.74753E-02   -0.83120E-02   136   0.219E+00    0.528E-01
DAV:   5    -0.902002669052E+02   -0.14047E-02   -0.56193E-02   136   0.150E+00    0.539E-01
DAV:   6    -0.901970434844E+02    0.32234E-02   -0.28751E-02   136   0.107E+00    0.153E-01
DAV:   7    -0.901974079763E+02   -0.36449E-03   -0.29724E-03   128   0.261E-01    0.502E-02
DAV:   8    -0.901974813889E+02   -0.73413E-04   -0.25812E-04    80   0.767E-02
  50 F= -.90197481E+02 E0= -.90143748E+02  d E =-.212538E+00
       N       E                     dE             d eps       ncg     rms          rms(c)
DAV:   1    -0.901999257379E+02   -0.25178E-02   -0.86195E-01   112   0.800E+00    0.271E-01
DAV:   2    -0.902052199624E+02   -0.52942E-02   -0.80147E-02   112   0.148E+00    0.220E-01
DAV:   3    -0.902051563097E+02    0.63653E-04   -0.94523E-03   144   0.614E-01    0.201E-01
DAV:   4    -0.902048451116E+02    0.31120E-03   -0.45182E-03   136   0.488E-01    0.114E-01
DAV:   5    -0.902049623608E+02   -0.11725E-03   -0.24402E-03   128   0.332E-01    0.110E-01
DAV:   6    -0.902048567693E+02    0.10559E-03   -0.11632E-03   120   0.208E-01    0.313E-02
DAV:   7    -0.902049254314E+02   -0.68662E-04   -0.10462E-04    56   0.570E-02
  51 F= -.90204925E+02 E0= -.90151117E+02  d E =-.219982E+00
       N       E                     dE             d eps       ncg     rms          rms(c)
DAV:   1    -0.903168579577E+02   -0.11200E+00   -0.12609E+01   112   0.319E+01    0.112E+00
DAV:   2    -0.904356264085E+02   -0.11877E+00   -0.14011E+00   120   0.620E+00    0.150E+00
DAV:   3    -0.904078267351E+02    0.27800E-01   -0.22279E-01   136   0.297E+00    0.624E-01
DAV:   4    -0.904100024555E+02   -0.21757E-02   -0.51667E-02   128   0.161E+00    0.556E-01
DAV:   5    -0.904080976469E+02    0.19048E-02   -0.39951E-02   144   0.164E+00    0.359E-01
DAV:   6    -0.904073696996E+02    0.72795E-03   -0.88355E-03   128   0.649E-01    0.656E-02
DAV:   7    -0.904076634638E+02   -0.29376E-03   -0.88529E-04   112   0.153E-01    0.311E-02
DAV:   8    -0.904077278644E+02   -0.64401E-04   -0.79539E-05    48   0.662E-02
  52 F= -.90407728E+02 E0= -.90353720E+02  d E =-.202802E+00
       N       E                     dE             d eps       ncg     rms          rms(c)
DAV:   1    -0.903624561358E+02    0.45207E-01   -0.21738E+01   112   0.418E+01    0.151E+00
DAV:   2    -0.905698659783E+02   -0.20741E+00   -0.25778E+00   120   0.818E+00    0.211E+00
DAV:   3    -0.905150211555E+02    0.54845E-01   -0.53365E-01   144   0.403E+00    0.875E-01
DAV:   4    -0.905195814620E+02   -0.45603E-02   -0.11129E-01   128   0.227E+00    0.846E-01
DAV:   5    -0.905132747015E+02    0.63068E-02   -0.78492E-02   136   0.216E+00    0.439E-01
DAV:   6    -0.905125336613E+02    0.74104E-03   -0.14556E-02   128   0.804E-01    0.103E-01
DAV:   7    -0.905130004025E+02   -0.46674E-03   -0.16139E-03   112   0.207E-01    0.430E-02
DAV:   8    -0.905131322816E+02   -0.13188E-03   -0.16109E-04    72   0.903E-02    0.184E-02
DAV:   9    -0.905132650315E+02   -0.13275E-03   -0.67083E-05    56   0.424E-02    0.921E-03
DAV:  10    -0.905133475293E+02   -0.82498E-04   -0.22540E-05    48   0.248E-02
  53 F= -.90513348E+02 E0= -.90462464E+02  d E =-.308422E+00
       N       E                     dE             d eps       ncg     rms          rms(c)
DAV:   1    -0.906093957781E+02   -0.96131E-01   -0.69505E+00   112   0.232E+01    0.737E-01
DAV:   2    -0.906597149333E+02   -0.50319E-01   -0.67227E-01   112   0.432E+00    0.566E-01
DAV:   3    -0.906605884736E+02   -0.87354E-03   -0.84762E-02   152   0.143E+00    0.521E-01
DAV:   4    -0.906569512419E+02    0.36372E-02   -0.25092E-02   136   0.737E-01    0.189E-01
DAV:   5    -0.906575388657E+02   -0.58762E-03   -0.33123E-03   128   0.279E-01    0.678E-02
DAV:   6    -0.906578251059E+02   -0.28624E-03   -0.11934E-03   120   0.224E-01    0.938E-02
DAV:   7    -0.906577500697E+02    0.75036E-04   -0.74193E-04    96   0.214E-01
  54 F= -.90657750E+02 E0= -.90610049E+02  d E =-.144403E+00
       N       E                     dE             d eps       ncg     rms          rms(c)
DAV:   1    -0.905920147746E+02    0.65810E-01   -0.23146E+01   112   0.420E+01    0.132E+00
DAV:   2    -0.907667098630E+02   -0.17470E+00   -0.22646E+00   112   0.792E+00    0.118E+00
DAV:   3    -0.907633512179E+02    0.33586E-02   -0.33020E-01   152   0.266E+00    0.933E-01
DAV:   4    -0.907518980190E+02    0.11453E-01   -0.82125E-02   136   0.119E+00    0.378E-01
DAV:   5    -0.907586621536E+02   -0.67641E-02   -0.52041E-02   136   0.154E+00    0.728E-01
DAV:   6    -0.907524434732E+02    0.62187E-02   -0.35002E-02   136   0.124E+00    0.110E-01
DAV:   7    -0.907531867024E+02   -0.74323E-03   -0.18874E-03   136   0.239E-01    0.384E-02
DAV:   8    -0.907533511343E+02   -0.16443E-03   -0.17720E-04    96   0.870E-02    0.214E-02
DAV:   9    -0.907534842511E+02   -0.13312E-03   -0.62443E-05    72   0.421E-02    0.774E-03
DAV:  10    -0.907535747458E+02   -0.90495E-04   -0.20958E-05    72   0.229E-02
  55 F= -.90753575E+02 E0= -.90714449E+02  d E =-.240227E+00
       N       E                     dE             d eps       ncg     rms          rms(c)
DAV:   1    -0.907957235795E+02   -0.42239E-01   -0.25391E+00   112   0.161E+01    0.469E-01
DAV:   2    -0.908216419133E+02   -0.25918E-01   -0.30709E-01    96   0.284E+00    0.304E-01
DAV:   3    -0.908224044229E+02   -0.76251E-03   -0.24324E-02   144   0.782E-01    0.301E-01
DAV:   4    -0.908213336304E+02    0.10708E-02   -0.11635E-02   144   0.503E-01    0.151E-01
DAV:   5    -0.908215668939E+02   -0.23326E-03   -0.15903E-03   128   0.195E-01    0.623E-02
DAV:   6    -0.908217068456E+02   -0.13995E-03   -0.13100E-03   104   0.254E-01    0.963E-02
DAV:   7    -0.908216195435E+02    0.87302E-04   -0.58194E-04    88   0.187E-01
  56 F= -.90821620E+02 E0= -.90786721E+02  d E =-.680448E-01
       N       E                     dE             d eps       ncg     rms          rms(c)
DAV:   1    -0.906755636673E+02    0.14614E+00   -0.23116E+01   112   0.479E+01    0.142E+00
DAV:   2    -0.909071348113E+02   -0.23157E+00   -0.27014E+00    96   0.856E+00    0.841E-01
DAV:   3    -0.909123289727E+02   -0.51942E-02   -0.17343E-01   152   0.224E+00    0.776E-01
DAV:   4    -0.909059610507E+02    0.63679E-02   -0.84925E-02   144   0.152E+00    0.468E-01
DAV:   5    -0.909054243942E+02    0.53666E-03   -0.14072E-02   136   0.717E-01    0.127E-01
DAV:   6    -0.909063792835E+02   -0.95489E-03   -0.71417E-03   144   0.574E-01    0.237E-01
DAV:   7    -0.909057123417E+02    0.66694E-03   -0.40235E-03   136   0.426E-01    0.443E-02
DAV:   8    -0.909058469873E+02   -0.13465E-03   -0.24368E-04    88   0.957E-02    0.298E-02
DAV:   9    -0.909059806931E+02   -0.13371E-03   -0.77071E-05    80   0.527E-02    0.121E-02
DAV:  10    -0.909060501916E+02   -0.69498E-04   -0.28385E-05    72   0.292E-02
  57 F= -.90906050E+02 E0= -.90883913E+02  d E =-.152475E+00
       N       E                     dE             d eps       ncg     rms          rms(c)
DAV:   1    -0.909321427224E+02   -0.26162E-01   -0.36637E+00   112   0.183E+01    0.582E-01
DAV:   2    -0.909648929854E+02   -0.32750E-01   -0.41952E-01   112   0.329E+00    0.465E-01
DAV:   3    -0.909640781783E+02    0.81481E-03   -0.43350E-02   152   0.107E+00    0.332E-01
DAV:   4    -0.909629587345E+02    0.11194E-02   -0.15817E-02   136   0.579E-01    0.179E-01
DAV:   5    -0.909634552059E+02   -0.49647E-03   -0.52878E-03   128   0.398E-01    0.174E-01
DAV:   6    -0.909631860437E+02    0.26916E-03   -0.30871E-03   128   0.395E-01    0.595E-02
DAV:   7    -0.909632436991E+02   -0.57655E-04   -0.31686E-04    88   0.136E-01
  58 F= -.90963244E+02 E0= -.90945951E+02  d E =-.571935E-01
       N       E                     dE             d eps       ncg     rms          rms(c)
DAV:   1    -0.909518900418E+02    0.11296E-01   -0.32812E+00   112   0.173E+01    0.550E-01
DAV:   2    -0.909811807289E+02   -0.29291E-01   -0.37427E-01   112   0.310E+00    0.406E-01
DAV:   3    -0.909809615410E+02    0.21919E-03   -0.35255E-02   152   0.943E-01    0.311E-01
DAV:   4    -0.909800420915E+02    0.91945E-03   -0.15011E-02   144   0.549E-01    0.185E-01
[...]
DAV:   1    -0.939984995109E+02   -0.91955E-02   -0.30753E+00   112   0.172E+01    0.445E-01
DAV:   2    -0.940281326691E+02   -0.29633E-01   -0.35089E-01    96   0.309E+00    0.283E-01
DAV:   3    -0.940292606863E+02   -0.11280E-02   -0.21896E-02   144   0.858E-01    0.294E-01
DAV:   4    -0.940283106505E+02    0.95004E-03   -0.83820E-03   144   0.578E-01    0.146E-01
DAV:   5    -0.940284944187E+02   -0.18377E-03   -0.20967E-03   136   0.264E-01    0.633E-02
DAV:   6    -0.940285403544E+02   -0.45936E-04   -0.78215E-04   112   0.155E-01
 144 F= -.94028540E+02 E0= -.94028530E+02  d E =-.392285E-01
       N       E                     dE             d eps       ncg     rms          rms(c)
DAV:   1    -0.938171002112E+02    0.21139E+00   -0.25972E+01   112   0.495E+01    0.131E+00
DAV:   2    -0.940763708283E+02   -0.25927E+00   -0.30154E+00    96   0.912E+00    0.946E-01
DAV:   3    -0.940867813193E+02   -0.10410E-01   -0.25732E-01   144   0.272E+00    0.103E+00
DAV:   4    -0.940732252830E+02    0.13556E-01   -0.97459E-02   144   0.147E+00    0.406E-01
DAV:   5    -0.940741788698E+02   -0.95359E-03   -0.18326E-02   136   0.731E-01    0.232E-01
DAV:   6    -0.940739302364E+02    0.24863E-03   -0.81819E-03   136   0.494E-01    0.133E-01
DAV:   7    -0.940739206536E+02    0.95828E-05   -0.12797E-03   128   0.191E-01    0.414E-02
DAV:   8    -0.940741291598E+02   -0.20851E-03   -0.12448E-04    80   0.564E-02    0.179E-02
DAV:   9    -0.940743156338E+02   -0.18647E-03   -0.42430E-05    72   0.304E-02    0.784E-03
DAV:  10    -0.940745162662E+02   -0.20063E-03   -0.29571E-05    80   0.195E-02    0.497E-03
DAV:  11    -0.940746986222E+02   -0.18236E-03   -0.16422E-05    72   0.114E-02    0.311E-03
DAV:  12    -0.940749090585E+02   -0.21044E-03   -0.36843E-05    80   0.109E-02    0.196E-03
DAV:  13    -0.940749796593E+02   -0.70601E-04   -0.78490E-06    72   0.713E-03
 145 F= -.94074980E+02 E0= -.94074953E+02  d E =-.856678E-01
       N       E                     dE             d eps       ncg     rms          rms(c)
DAV:   1    -0.940864783998E+02   -0.11569E-01   -0.32793E+00   112   0.167E+01    0.463E-01
DAV:   2    -0.941146023817E+02   -0.28124E-01   -0.35051E-01   112   0.309E+00    0.305E-01
DAV:   3    -0.941154999436E+02   -0.89756E-03   -0.26206E-02   152   0.881E-01    0.294E-01
DAV:   4    -0.941146133084E+02    0.88664E-03   -0.10881E-02   136   0.552E-01    0.174E-01
DAV:   5    -0.941147466942E+02   -0.13339E-03   -0.45746E-03   136   0.333E-01    0.135E-01
DAV:   6    -0.941145636688E+02    0.18303E-03   -0.16739E-03   120   0.220E-01    0.341E-02
DAV:   7    -0.941145990904E+02   -0.35422E-04   -0.13559E-04    80   0.641E-02
 146 F= -.94114599E+02 E0= -.94114567E+02  d E =-.396194E-01
       N       E                     dE             d eps       ncg     rms          rms(c)
DAV:   1    -0.939099868747E+02    0.20458E+00   -0.29712E+01   112   0.498E+01    0.142E+00
DAV:   2    -0.941711826469E+02   -0.26120E+00   -0.32198E+00   112   0.940E+00    0.960E-01
DAV:   3    -0.941805327277E+02   -0.93501E-02   -0.27881E-01   144   0.273E+00    0.101E+00
DAV:   4    -0.941696761483E+02    0.10857E-01   -0.13515E-01   136   0.158E+00    0.558E-01
DAV:   5    -0.941696579351E+02    0.18213E-04   -0.44497E-02   144   0.989E-01    0.413E-01
DAV:   6    -0.941677566878E+02    0.19012E-02   -0.15000E-02   136   0.659E-01    0.101E-01
DAV:   7    -0.941680315491E+02   -0.27486E-03   -0.14309E-03   128   0.177E-01    0.405E-02
DAV:   8    -0.941681918648E+02   -0.16032E-03   -0.87644E-05    72   0.499E-02    0.199E-02
DAV:   9    -0.941683866679E+02   -0.19480E-03   -0.50953E-05    80   0.291E-02    0.812E-03
DAV:  10    -0.941685323028E+02   -0.14563E-03   -0.15685E-05    72   0.165E-02    0.465E-03
DAV:  11    -0.941687216621E+02   -0.18936E-03   -0.25567E-05    80   0.122E-02    0.309E-03
DAV:  12    -0.941688791615E+02   -0.15750E-03   -0.19536E-05    72   0.927E-03    0.253E-03
DAV:  13    -0.941689569781E+02   -0.77817E-04   -0.13951E-05    80   0.748E-03
 147 F= -.94168957E+02 E0= -.94168895E+02  d E =-.939773E-01
       N       E                     dE             d eps       ncg     rms          rms(c)
DAV:   1    -0.941930982836E+02   -0.24219E-01   -0.64977E+00   112   0.218E+01    0.667E-01
DAV:   2    -0.942414821873E+02   -0.48384E-01   -0.62452E-01   120   0.400E+00    0.459E-01
DAV:   3    -0.942413853059E+02    0.96881E-04   -0.47592E-02   144   0.129E+00    0.406E-01
DAV:   4    -0.942399661698E+02    0.14191E-02   -0.20631E-02   144   0.682E-01    0.256E-01
DAV:   5    -0.942401026297E+02   -0.13646E-03   -0.14416E-02   136   0.629E-01    0.235E-01
DAV:   6    -0.942394973223E+02    0.60531E-03   -0.48352E-03   136   0.316E-01    0.454E-02
DAV:   7    -0.942395748330E+02   -0.77511E-04   -0.24281E-04    88   0.775E-02
 148 F= -.94239575E+02 E0= -.94239501E+02  d E =-.706179E-01
       N       E                     dE             d eps       ncg     rms          rms(c)
DAV:   1    -0.941884808055E+02    0.51017E-01   -0.12347E+01   112   0.299E+01    0.936E-01
DAV:   2    -0.942791118238E+02   -0.90631E-01   -0.11766E+00   112   0.554E+00    0.611E-01
DAV:   3    -0.942791227406E+02   -0.10917E-04   -0.81495E-02   144   0.173E+00    0.495E-01
DAV:   4    -0.942772548133E+02    0.18679E-02   -0.32472E-02   136   0.869E-01    0.335E-01
DAV:   5    -0.942778797042E+02   -0.62489E-03   -0.28588E-02   128   0.730E-01    0.350E-01
DAV:   6    -0.942763955880E+02    0.14841E-02   -0.10891E-02   136   0.453E-01    0.736E-02
DAV:   7    -0.942765573709E+02   -0.16178E-03   -0.58586E-04   120   0.117E-01    0.248E-02
DAV:   8    -0.942766591319E+02   -0.10176E-03   -0.70584E-05    72   0.418E-02    0.118E-02
DAV:   9    -0.942767388642E+02   -0.79732E-04   -0.24496E-05    72   0.226E-02
 149 F= -.94276739E+02 E0= -.94276646E+02  d E =-.107782E+00
       N       E                     dE             d eps       ncg     rms          rms(c)
DAV:   1    -0.943155388994E+02   -0.38880E-01   -0.20498E+00    96   0.100E+01    0.449E-01
DAV:   2    -0.943268147763E+02   -0.11276E-01   -0.16486E-01   128   0.200E+00    0.696E-01
DAV:   3    -0.943204626584E+02    0.63521E-02   -0.58758E-02   136   0.105E+00    0.266E-01
DAV:   4    -0.943198798924E+02    0.58277E-03   -0.53710E-03   128   0.349E-01    0.868E-02
DAV:   5    -0.943200473487E+02   -0.16746E-03   -0.99819E-04   128   0.150E-01    0.574E-02
DAV:   6    -0.943200469225E+02    0.42614E-06   -0.38677E-04   104   0.119E-01
 150 F= -.94320047E+02 E0= -.94319954E+02  d E =-.433081E-01
       N       E                     dE             d eps       ncg     rms          rms(c)
DAV:   1    -0.943263821701E+02   -0.63348E-02   -0.93456E-01    96   0.678E+00    0.307E-01
DAV:   2    -0.943317074300E+02   -0.53253E-02   -0.76620E-02   128   0.144E+00    0.487E-01
DAV:   3    -0.943285576508E+02    0.31498E-02   -0.28130E-02   136   0.752E-01    0.178E-01
DAV:   4    -0.943284048587E+02    0.15279E-03   -0.24142E-03   120   0.255E-01    0.602E-02
DAV:   5    -0.943285095161E+02   -0.10466E-03   -0.55773E-04   128   0.118E-01    0.484E-02
DAV:   6    -0.943284905241E+02    0.18992E-04   -0.20292E-04    88   0.923E-02
 151 F= -.94328491E+02 E0= -.94328395E+02  d E =-.517517E-01
       N       E                     dE             d eps       ncg     rms          rms(c)
DAV:   1    -0.943528111529E+02   -0.24302E-01   -0.23358E+00   112   0.116E+01    0.432E-01
DAV:   2    -0.943683935754E+02   -0.15582E-01   -0.19939E-01   120   0.236E+00    0.617E-01
DAV:   3    -0.943643454893E+02    0.40481E-02   -0.48699E-02   144   0.106E+00    0.272E-01
DAV:   4    -0.943635256767E+02    0.81981E-03   -0.68052E-03   144   0.453E-01    0.120E-01
DAV:   5    -0.943637264454E+02   -0.20077E-03   -0.31753E-03   136   0.294E-01    0.114E-01
DAV:   6    -0.943635505470E+02    0.17590E-03   -0.11487E-03   120   0.185E-01    0.288E-02
DAV:   7    -0.943635880829E+02   -0.37536E-04   -0.82334E-05    72   0.451E-02
 152 F= -.94363588E+02 E0= -.94363474E+02  d E =-.350976E-01
       N       E                     dE             d eps       ncg     rms          rms(c)
DAV:   1    -0.943655110788E+02   -0.19605E-02   -0.10004E+00   112   0.759E+00    0.278E-01
DAV:   2    -0.943719660082E+02   -0.64549E-02   -0.83729E-02   120   0.147E+00    0.372E-01
DAV:   3    -0.943705336519E+02    0.14324E-02   -0.18361E-02   136   0.651E-01    0.183E-01
DAV:   4    -0.943701586299E+02    0.37502E-03   -0.29953E-03   128   0.281E-01    0.747E-02
DAV:   5    -0.943702749559E+02   -0.11633E-03   -0.12489E-03   136   0.182E-01    0.727E-02
DAV:   6    -0.943702055736E+02    0.69382E-04   -0.45830E-04   104   0.119E-01
 153 F= -.94370206E+02 E0= -.94370077E+02  d E =-.417150E-01
       N       E                     dE             d eps       ncg     rms          rms(c)
DAV:   1    -0.943754001776E+02   -0.51252E-02   -0.24908E+00   112   0.139E+01    0.426E-01
DAV:   2    -0.943958204934E+02   -0.20420E-01   -0.25334E-01    96   0.261E+00    0.393E-01
DAV:   3    -0.943958739866E+02   -0.53493E-04   -0.32259E-02   152   0.873E-01    0.330E-01
DAV:   4    -0.943944934713E+02    0.13805E-02   -0.11691E-02   136   0.612E-01    0.171E-01
DAV:   5    -0.943945038538E+02   -0.10383E-04   -0.41626E-03   136   0.319E-01    0.113E-01
DAV:   6    -0.943944107595E+02    0.93094E-04   -0.14141E-03   136   0.196E-01    0.284E-02
DAV:   7    -0.943944489937E+02   -0.38234E-04   -0.89564E-05    72   0.562E-02
 154 F= -.94394449E+02 E0= -.94394294E+02  d E =-.242434E-01
       N       E                     dE             d eps       ncg     rms          rms(c)
DAV:   1    -0.943935724415E+02    0.83832E-03   -0.42296E-01   112   0.574E+00    0.174E-01
DAV:   2    -0.943969841141E+02   -0.34117E-02   -0.42817E-02    96   0.107E+00    0.149E-01
DAV:   3    -0.943970665450E+02   -0.82431E-04   -0.49931E-03   152   0.348E-01    0.137E-01
DAV:   4    -0.943968395200E+02    0.22703E-03   -0.19918E-03   120   0.232E-01    0.687E-02
DAV:   5    -0.943968759976E+02   -0.36478E-04   -0.67313E-04   104   0.134E-01
 155 F= -.94396876E+02 E0= -.94396709E+02  d E =-.266704E-01
       N       E                     dE             d eps       ncg     rms          rms(c)
DAV:   1    -0.944002322932E+02   -0.33928E-02   -0.16655E+00   112   0.116E+01    0.350E-01
DAV:   2    -0.944147496096E+02   -0.14517E-01   -0.17520E-01   112   0.221E+00    0.475E-01
DAV:   3    -0.944127711807E+02    0.19784E-02   -0.29226E-02   136   0.875E-01    0.206E-01
DAV:   4    -0.944123190144E+02    0.45217E-03   -0.42735E-03   128   0.350E-01    0.107E-01
DAV:   5    -0.944124419063E+02   -0.12289E-03   -0.12677E-03   128   0.197E-01    0.618E-02
DAV:   6    -0.944124187616E+02    0.23145E-04   -0.44189E-04   104   0.120E-01
 156 F= -.94412419E+02 E0= -.94412237E+02  d E =-.155428E-01
       N       E                     dE             d eps       ncg     rms          rms(c)
DAV:   1    -0.944115963516E+02    0.84555E-03   -0.34383E-01   112   0.530E+00    0.160E-01
DAV:   2    -0.944145992246E+02   -0.30029E-02   -0.36446E-02   112   0.996E-01    0.215E-01
DAV:   3    -0.944141810672E+02    0.41816E-03   -0.59028E-03   136   0.397E-01    0.938E-02
DAV:   4    -0.944141167308E+02    0.64336E-04   -0.85678E-04   104   0.152E-01
 157 F= -.94414117E+02 E0= -.94413921E+02  d E =-.172407E-01
       N       E                     dE             d eps       ncg     rms          rms(c)
DAV:   1    -0.944146754658E+02   -0.49440E-03   -0.94315E-01   112   0.825E+00    0.268E-01
DAV:   2    -0.944206938951E+02   -0.60184E-02   -0.82352E-02   104   0.151E+00    0.183E-01
DAV:   3    -0.944206817664E+02    0.12129E-04   -0.67154E-03   144   0.450E-01    0.150E-01
DAV:   4    -0.944205145586E+02    0.16721E-03   -0.31904E-03   128   0.289E-01    0.112E-01
DAV:   5    -0.944205556885E+02   -0.41130E-04   -0.22707E-03   136   0.216E-01    0.899E-02
DAV:   6    -0.944204796777E+02    0.76011E-04   -0.79062E-04   112   0.139E-01
 158 F= -.94420480E+02 E0= -.94420293E+02  d E =-.636295E-02
       N       E                     dE             d eps       ncg     rms          rms(c)
DAV:   1    -0.944205167766E+02    0.38912E-04   -0.93036E-04   112   0.264E-01    0.109E-02
DAV:   2    -0.944205405772E+02   -0.23801E-04   -0.79034E-05    56   0.474E-02
 159 F= -.94420541E+02 E0= -.94420354E+02  d E =-.642385E-02
       N       E                     dE             d eps       ncg     rms          rms(c)
DAV:   1    -0.944215222501E+02   -0.10055E-02   -0.63811E-01   112   0.700E+00    0.207E-01
DAV:   2    -0.944259636952E+02   -0.44414E-02   -0.59992E-02    96   0.128E+00    0.127E-01
DAV:   3    -0.944262717334E+02   -0.30804E-03   -0.57077E-03   152   0.391E-01    0.163E-01
DAV:   4    -0.944259803023E+02    0.29143E-03   -0.27430E-03   120   0.249E-01    0.634E-02
DAV:   5    -0.944260153526E+02   -0.35050E-04   -0.40045E-04    88   0.102E-01
 160 F= -.94426015E+02 E0= -.94425850E+02  d E =-.547478E-02
       N       E                     dE             d eps       ncg     rms          rms(c)
DAV:   1    -0.944249278824E+02    0.10524E-02   -0.28566E-01   112   0.470E+00    0.139E-01
DAV:   2    -0.944269168556E+02   -0.19890E-02   -0.26921E-02    96   0.859E-01    0.922E-02
DAV:   3    -0.944270671380E+02   -0.15028E-03   -0.28936E-03   152   0.280E-01    0.115E-01
DAV:   4    -0.944269214592E+02    0.14568E-03   -0.13170E-03   112   0.175E-01    0.423E-02
DAV:   5    -0.944269594244E+02   -0.37965E-04   -0.21539E-04    88   0.790E-02
 161 F= -.94426959E+02 E0= -.94426810E+02  d E =-.641885E-02
       N       E                     dE             d eps       ncg     rms          rms(c)
DAV:   1    -0.944291087097E+02   -0.21873E-02   -0.44810E-01    96   0.516E+00    0.183E-01
DAV:   2    -0.944314433016E+02   -0.23346E-02   -0.36006E-02   128   0.985E-01    0.220E-01
DAV:   3    -0.944309763791E+02    0.46692E-03   -0.74686E-03   152   0.506E-01    0.125E-01
DAV:   4    -0.944308651056E+02    0.11127E-03   -0.15274E-03   120   0.188E-01    0.492E-02
DAV:   5    -0.944309225404E+02   -0.57435E-04   -0.46296E-04    96   0.113E-01
 162 F= -.94430923E+02 E0= -.94430776E+02  d E =-.396312E-02
       N       E                     dE             d eps       ncg     rms          rms(c)
DAV:   1    -0.944309281095E+02   -0.63004E-04   -0.14785E-01    96   0.296E+00    0.108E-01
DAV:   2    -0.944316994335E+02   -0.77132E-03   -0.11949E-02   128   0.571E-01    0.128E-01
DAV:   3    -0.944315382008E+02    0.16123E-03   -0.25476E-03   136   0.280E-01    0.751E-02
DAV:   4    -0.944315189094E+02    0.19291E-04   -0.52034E-04    88   0.116E-01
 163 F= -.94431519E+02 E0= -.94431381E+02  d E =-.455949E-02
       N       E                     dE             d eps       ncg     rms          rms(c)
DAV:   1    -0.944331792124E+02   -0.16410E-02   -0.24771E-01   112   0.434E+00    0.132E-01
DAV:   2    -0.944345866537E+02   -0.14074E-02   -0.19898E-02    96   0.735E-01    0.759E-02
DAV:   3    -0.944346501120E+02   -0.63458E-04   -0.11260E-03   144   0.170E-01    0.484E-02
DAV:   4    -0.944347049067E+02   -0.54795E-04   -0.38569E-04    96   0.111E-01
 164 F= -.94434705E+02 E0= -.94434565E+02  d E =-.318600E-02
       N       E                     dE             d eps       ncg     rms          rms(c)
DAV:   1    -0.944325851190E+02    0.20650E-02   -0.69966E-01   112   0.727E+00    0.226E-01
DAV:   2    -0.944365445265E+02   -0.39594E-02   -0.56985E-02    96   0.126E+00    0.147E-01
DAV:   3    -0.944368077448E+02   -0.26322E-03   -0.54349E-03   144   0.376E-01    0.148E-01
DAV:   4    -0.944366789335E+02    0.12881E-03   -0.35176E-03   144   0.278E-01    0.105E-01
DAV:   5    -0.944366702619E+02    0.86715E-05   -0.98521E-04   112   0.155E-01
 165 F= -.94436670E+02 E0= -.94436513E+02  d E =-.515135E-02
       N       E                     dE             d eps       ncg     rms          rms(c)
DAV:   1    -0.944381219605E+02   -0.14430E-02   -0.16754E-01   112   0.327E+00    0.102E-01
DAV:   2    -0.944388687457E+02   -0.74679E-03   -0.11073E-02   112   0.565E-01    0.742E-02
DAV:   3    -0.944389516774E+02   -0.82932E-04   -0.15251E-03   136   0.192E-01    0.867E-02
DAV:   4    -0.944388805442E+02    0.71133E-04   -0.82970E-04    96   0.139E-01
 166 F= -.94438881E+02 E0= -.94438724E+02  d E =-.221028E-02
       N       E                     dE             d eps       ncg     rms          rms(c)
DAV:   1    -0.944379437675E+02    0.10079E-02   -0.48903E-01   112   0.560E+00    0.173E-01
DAV:   2    -0.944402104234E+02   -0.22667E-02   -0.32499E-02    96   0.963E-01    0.140E-01
DAV:   3    -0.944403448781E+02   -0.13445E-03   -0.48832E-03   152   0.350E-01    0.144E-01
DAV:   4    -0.944401283660E+02    0.21651E-03   -0.22914E-03   120   0.224E-01    0.598E-02
DAV:   5    -0.944401816218E+02   -0.53256E-04   -0.42358E-04    96   0.105E-01
 167 F= -.94440182E+02 E0= -.94440013E+02  d E =-.351136E-02
       N       E                     dE             d eps       ncg     rms          rms(c)
DAV:   1    -0.944409638259E+02   -0.83546E-03   -0.23414E-01   104   0.389E+00    0.129E-01
DAV:   2    -0.944424261767E+02   -0.14624E-02   -0.18245E-02   120   0.691E-01    0.162E-01
DAV:   3    -0.944421359142E+02    0.29026E-03   -0.30485E-03   136   0.304E-01    0.817E-02
DAV:   4    -0.944421866072E+02   -0.50693E-04   -0.81619E-04   104   0.146E-01
 168 F= -.94442187E+02 E0= -.94442008E+02  d E =-.200499E-02
       N       E                     dE             d eps       ncg     rms          rms(c)
DAV:   1    -0.944406881484E+02    0.14478E-02   -0.45108E-01   104   0.539E+00    0.185E-01
DAV:   2    -0.944434383841E+02   -0.27502E-02   -0.34207E-02   112   0.955E-01    0.222E-01
DAV:   3    -0.944429574483E+02    0.48094E-03   -0.59349E-03   152   0.468E-01    0.122E-01
DAV:   4    -0.944430116471E+02   -0.54199E-04   -0.15566E-03   128   0.199E-01    0.758E-02
DAV:   5    -0.944430220578E+02   -0.10411E-04   -0.69752E-04   112   0.143E-01
 169 F= -.94443022E+02 E0= -.94442813E+02  d E =-.284044E-02
       N       E                     dE             d eps       ncg     rms          rms(c)
DAV:   1    -0.944430748367E+02   -0.63190E-04   -0.22856E-01   112   0.401E+00    0.114E-01
DAV:   2    -0.944444967549E+02   -0.14219E-02   -0.18104E-02    96   0.714E-01    0.673E-02
DAV:   3    -0.944445450805E+02   -0.48326E-04   -0.10374E-03   144   0.159E-01    0.388E-02
DAV:   4    -0.944445933874E+02   -0.48307E-04   -0.18123E-04    88   0.786E-02
 170 F= -.94444593E+02 E0= -.94444377E+02  d E =-.157133E-02
       N       E                     dE             d eps       ncg     rms          rms(c)
DAV:   1    -0.944444480910E+02    0.96989E-04   -0.48065E-02   112   0.184E+00    0.595E-02
DAV:   2    -0.944447640676E+02   -0.31598E-03   -0.40369E-03    96   0.338E-01    0.565E-02
DAV:   3    -0.944447565474E+02    0.75202E-05   -0.64428E-04   104   0.135E-01
 171 F= -.94444757E+02 E0= -.94444520E+02  d E =-.173449E-02
       N       E                     dE             d eps       ncg     rms          rms(c)
DAV:   1    -0.944447622037E+02    0.18639E-05   -0.10324E-01   112   0.287E+00    0.893E-02
DAV:   2    -0.944456229530E+02   -0.86075E-03   -0.10629E-02   128   0.529E-01    0.894E-02
DAV:   3    -0.944455761248E+02    0.46828E-04   -0.14215E-03   112   0.208E-01    0.706E-02
DAV:   4    -0.944455323414E+02    0.43783E-04   -0.41790E-04    80   0.108E-01
 172 F= -.94445532E+02 E0= -.94445294E+02  d E =-.775794E-03
       N       E                     dE             d eps       ncg     rms          rms(c)
DAV:   1    -0.944455022209E+02    0.73904E-04   -0.10798E-02   112   0.937E-01    0.331E-02
DAV:   2    -0.944455976568E+02   -0.95436E-04   -0.11789E-03   120   0.182E-01    0.362E-02
DAV:   3    -0.944455854844E+02    0.12172E-04   -0.20795E-04    80   0.812E-02
 173 F= -.94445585E+02 E0= -.94445340E+02  d E =-.828937E-03
