unknown system                          
           1
    20.738775    0.000000    0.000000
     0.000000   20.180822    0.000000
     0.000000    0.000000   18.777092
   Ti   Al   B 
     2     4    12
Direct configuration=     1
   0.45418922  0.49924385  0.67937395
   0.54480452  0.39890002  0.62326438
   0.60148955  0.69854372  0.45531414
   0.46713317  0.50933173  0.35403287
   0.61029962  0.30297257  0.64276905
   0.72352501  0.58647544  0.46308018
   0.45337464  0.56641439  0.61556110
   0.48676220  0.41910449  0.57004326
   0.43815352  0.37262140  0.54898754
   0.42758050  0.45201525  0.39160094
   0.44271352  0.39489750  0.48010801
   0.56141127  0.56015011  0.54361330
   0.56450589  0.61807032  0.39434027
   0.29138267  0.48433391  0.52371540
   0.52477746  0.46151028  0.48728746
   0.44093246  0.64253610  0.43268002
   0.37258285  0.53324453  0.58730498
   0.43632353  0.64254723  0.57237323
Direct configuration=     2
   0.45313210  0.49105174  0.68039233
   0.55912975  0.39576188  0.63699974
   0.60119691  0.69626400  0.45600566
   0.48594685  0.53590038  0.34193900
   0.61151191  0.30121820  0.64262335
   0.72112702  0.58738155  0.46288081
   0.45001052  0.57663030  0.60484476
   0.47611649  0.43540873  0.55468921
   0.43209672  0.35907221  0.56476819
   0.41459236  0.42403890  0.41666711
   0.44258306  0.40712085  0.45658774
   0.55858604  0.55812796  0.54135192
   0.56110515  0.61625685  0.39573913
   0.29587279  0.48669496  0.52652004
   0.52185374  0.46144849  0.49050671
   0.44394634  0.64108186  0.43528902
   0.37582468  0.53234321  0.58787467
   0.43730920  0.63711075  0.56977069
Direct configuration=     3
   0.45373495  0.49572355  0.67981157
   0.55096034  0.39755150  0.62916672
   0.60136380  0.69756408  0.45561130
   0.47521776  0.52074878  0.34883591
   0.61082056  0.30221868  0.64270644
   0.72249455  0.58686482  0.46299451
   0.45192902  0.57080436  0.61095608
   0.48218754  0.42611073  0.56344533
   0.43555080  0.36679906  0.55576878
   0.42199925  0.43999328  0.40237234
   0.44265746  0.40015010  0.47000091
   0.56019722  0.55928115  0.54264154
   0.56304453  0.61729104  0.39494139
   0.29331216  0.48534850  0.52492061
   0.52352108  0.46148373  0.48867083
   0.44222758  0.64191119  0.43380116
   0.37397592  0.53285722  0.58754979
   0.43674709  0.64021107  0.57125487
Direct configuration=     4
   0.45333827  0.49273674  0.67565162
   0.54930053  0.40200396  0.63127897
   0.60106528  0.69559838  0.45610161
   0.47767934  0.52389527  0.35183312
   0.61268872  0.29879355  0.64228621
   0.72012739  0.58774578  0.46284702
   0.44984580  0.57242578  0.60802687
   0.48138999  0.43208101  0.55912712
   0.43563091  0.36399756  0.55364728
   0.42364989  0.44108502  0.40355699
   0.44301593  0.40098760  0.47522700
   0.55751925  0.55712694  0.54012637
   0.55959969  0.61507576  0.39615256
   0.29761791  0.48757586  0.52764065
   0.52051548  0.46150909  0.49138555
   0.44494764  0.64053610  0.43707330
   0.37680886  0.53195014  0.58724169
   0.43720072  0.63778832  0.56624616
Direct configuration=     5
   0.45261861  0.48731805  0.66810461
   0.54628930  0.41008163  0.63511102
   0.60052371  0.69203219  0.45699114
   0.48214516  0.52960364  0.35727069
   0.61607794  0.29257965  0.64152381
   0.71583287  0.58934402  0.46257944
   0.44606640  0.57536736  0.60271268
   0.47994306  0.44291232  0.55129299
   0.43577625  0.35891505  0.54979844
   0.42664448  0.44306566  0.40570618
   0.44366628  0.40250698  0.48470820
   0.55266088  0.55321874  0.53556332
   0.55335006  0.61105678  0.39834988
   0.30542943  0.49161674  0.53257536
   0.51506268  0.46155512  0.49631062
   0.44988239  0.63804140  0.44300964
   0.38194841  0.53030452  0.58668273
   0.43802369  0.63339294  0.55715933
Direct configuration=     6
   0.45283918  0.48897882  0.67041768
   0.54721220  0.40760592  0.63393654
   0.60068969  0.69312519  0.45671851
   0.48077644  0.52785409  0.35560413
   0.61503919  0.29448414  0.64175748
   0.71714909  0.58885418  0.46266145
   0.44722475  0.57446580  0.60434142
   0.48038653  0.43959264  0.55369406
   0.43573170  0.36047278  0.55097806
   0.42572667  0.44245862  0.40504747
   0.44346695  0.40204131  0.48180232
   0.55414992  0.55441656  0.53696184
   0.55526550  0.61228855  0.39767642
   0.30303529  0.49037826  0.53106292
   0.51673390  0.46154101  0.49480114
   0.44836995  0.63880600  0.44119022
   0.38037319  0.53080889  0.58685404
   0.43777146  0.63474008  0.55994434
Direct configuration=     7
   0.45273610  0.48788292  0.66842473
   0.54632363  0.40935019  0.63442970
   0.60050479  0.69212132  0.45685191
   0.48172769  0.52904225  0.35719788
   0.61563009  0.29329832  0.64155019
   0.71607119  0.58924747  0.46262399
   0.44659258  0.57435669  0.60388157
   0.47892945  0.44088451  0.55388459
   0.43619937  0.35962288  0.55090952
   0.42677862  0.44298989  0.40589645
   0.44348976  0.40288481  0.48277370
   0.55295751  0.55340036  0.53585724
   0.55357171  0.61146462  0.39825760
   0.30501892  0.49137900  0.53230466
   0.51651000  0.46226816  0.49427972
   0.44974613  0.63808537  0.44293841
   0.38123021  0.53036189  0.58654631
   0.43792386  0.63427219  0.55684190
Direct configuration=     8
   0.45242684  0.48459522  0.66244589
   0.54365792  0.41458300  0.63590917
   0.59995010  0.68910971  0.45725211
   0.48458144  0.53260672  0.36197914
   0.61740279  0.28974085  0.64092833
   0.71283747  0.59042735  0.46251162
   0.44469609  0.57402936  0.60250201
   0.47455820  0.44476012  0.55445618
   0.43760239  0.35707317  0.55070387
   0.42993447  0.44458371  0.40844338
   0.44355819  0.40541532  0.48568783
   0.54938030  0.55035176  0.53254344
   0.54849033  0.60899280  0.40000113
   0.31096982  0.49438122  0.53602987
   0.51583827  0.46444961  0.49271547
   0.45387466  0.63592346  0.44818297
   0.38380128  0.52902091  0.58562310
   0.43838104  0.63286855  0.54753457
Direct configuration=     9
   0.45180834  0.47801982  0.65048819
   0.53832650  0.42504863  0.63886811
   0.59884072  0.68308650  0.45805251
   0.49028893  0.53973566  0.37154164
   0.62094819  0.28262591  0.63968460
   0.70637005  0.59278710  0.46228687
   0.44090311  0.57337471  0.59974290
   0.46581571  0.45251133  0.55559936
   0.44040842  0.35197376  0.55029257
   0.43624617  0.44777134  0.41353723
   0.44369505  0.41047634  0.49151610
   0.54222587  0.54425455  0.52591585
   0.53832756  0.60404918  0.40348819
   0.32287162  0.50038567  0.54348030
   0.51449483  0.46881250  0.48958695
   0.46213172  0.63159966  0.45867210
   0.38894340  0.52633895  0.58377669
   0.43929542  0.63006125  0.52891992
Direct configuration=    10
   0.45215518  0.48170707  0.65719364
   0.54131617  0.41917988  0.63720884
   0.59946282  0.68646410  0.45760367
   0.48708837  0.53573800  0.36617933
   0.61896005  0.28661572  0.64038204
   0.70999675  0.59146383  0.46241290
   0.44303008  0.57374182  0.60129011
   0.47071819  0.44816473  0.55495831
   0.43883490  0.35483333  0.55052321
   0.43270679  0.44598383  0.41068078
   0.44361830  0.40763830  0.48824782
   0.54623782  0.54767364  0.52963237
   0.54402648  0.60682139  0.40153277
   0.31619751  0.49701859  0.53930237
   0.51524818  0.46636595  0.49134131
   0.45750146  0.63402429  0.45279017
   0.38605988  0.52784290  0.58481209
   0.43878267  0.63163548  0.53935835
Direct configuration=    11
   0.45201497  0.48021652  0.65448300
   0.54010762  0.42155229  0.63787959
   0.59921134  0.68509873  0.45778511
   0.48838218  0.53735403  0.36834701
   0.61976374  0.28500286  0.64010010
   0.70853068  0.59199876  0.46236195
   0.44217026  0.57359342  0.60066466
   0.46873639  0.44992182  0.55521745
   0.43947098  0.35367736  0.55042998
   0.43413757  0.44670642  0.41183548
   0.44364933  0.40878556  0.48956900
   0.54461601  0.54629149  0.52812999
   0.54172272  0.60570074  0.40232324
   0.31889548  0.49837971  0.54099127
   0.51494364  0.46735495  0.49063212
   0.45937322  0.63304415  0.45516791
   0.38722552  0.52723493  0.58439353
   0.43898994  0.63099911  0.53513867
Direct configuration=    12
   0.45136918  0.47890367  0.65379067
   0.53884282  0.42373388  0.63763489
   0.59857264  0.68265567  0.45786483
   0.48831512  0.53697200  0.37116701
   0.62032961  0.28370519  0.63970179
   0.70631205  0.59276641  0.46237446
   0.44295566  0.57567288  0.59909250
   0.46592751  0.45184321  0.55621216
   0.44094469  0.35300018  0.55157152
   0.43687886  0.44810716  0.41373245
   0.44361239  0.41031948  0.48802157
   0.54222276  0.54444490  0.52585973
   0.53937457  0.60688469  0.40487557
   0.32243977  0.49996254  0.54307076
   0.51431661  0.46869592  0.48885388
   0.46340043  0.63127036  0.45652657
   0.38665468  0.52508187  0.58320035
   0.43947224  0.62889282  0.53189938
Direct configuration=    13
   0.45067767  0.47749787  0.65304932
   0.53748847  0.42606994  0.63737287
   0.59788871  0.68003961  0.45795018
   0.48824332  0.53656292  0.37418668
   0.62093554  0.28231563  0.63927527
   0.70393632  0.59358842  0.46238786
   0.44379667  0.57789959  0.59740902
   0.46291974  0.45390066  0.55727729
   0.44252275  0.35227505  0.55279389
   0.43981427  0.44960709  0.41576374
   0.44357283  0.41196201  0.48636456
   0.53966004  0.54246755  0.52342873
   0.53686015  0.60815248  0.40760862
   0.32623502  0.50165745  0.54529750
   0.51364518  0.47013185  0.48694971
   0.46771280  0.62937097  0.45798143
   0.38604341  0.52277635  0.58192267
   0.43998869  0.62663740  0.52843071
Direct configuration=    14
   0.44920244  0.47724991  0.65584742
   0.53662414  0.42748914  0.63615000
   0.59707286  0.67727172  0.45804004
   0.48716375  0.53438188  0.37684332
   0.62114783  0.28163041  0.63885881
   0.70148414  0.59435346  0.46246306
   0.44474969  0.57986937  0.59501053
   0.46005837  0.45523096  0.55607700
   0.44445526  0.35309103  0.55399723
   0.44324029  0.45192539  0.41671739
   0.44382613  0.41225161  0.48517797
   0.53698923  0.54124993  0.52092071
   0.53495578  0.61110862  0.41107686
   0.32727593  0.50211190  0.54573935
   0.51190861  0.47096064  0.48517075
   0.47384981  0.62742049  0.45587112
   0.38822310  0.52147365  0.58231746
   0.43971426  0.62384275  0.52917108
Direct configuration=    15
   0.44864947  0.47715696  0.65689625
   0.53630016  0.42802111  0.63569162
   0.59676704  0.67623421  0.45807372
   0.48675909  0.53356434  0.37783913
   0.62122740  0.28137356  0.63870271
   0.70056497  0.59464023  0.46249125
   0.44510692  0.58060771  0.59411148
   0.45898582  0.45572961  0.55562709
   0.44517963  0.35339689  0.55444828
   0.44452449  0.45279437  0.41707484
   0.44392107  0.41236016  0.48473319
   0.53598812  0.54079352  0.51998061
   0.53424195  0.61221669  0.41237688
   0.32766609  0.50228224  0.54590497
   0.51125768  0.47127130  0.48450393
   0.47615019  0.62668938  0.45508010
   0.38904012  0.52098535  0.58246543
   0.43961139  0.62279522  0.52944860
Direct configuration=    16
   0.44771452  0.47753739  0.65988735
   0.53606138  0.42802586  0.63426950
   0.59661035  0.67525087  0.45833937
   0.48664745  0.53285937  0.37872060
   0.62097825  0.28163643  0.63849149
   0.69942521  0.59486206  0.46257446
   0.44565260  0.57960887  0.59443756
   0.45768175  0.45588060  0.55441481
   0.44641267  0.35531112  0.55486166
   0.44622437  0.45383355  0.41676311
   0.44413043  0.41098069  0.48499882
   0.53450134  0.54159030  0.51893859
   0.53533543  0.61293501  0.41189269
   0.32603047  0.50167907  0.54478934
   0.50940850  0.47083809  0.48377196
   0.47680221  0.62637643  0.45610510
   0.39238854  0.52134033  0.58375339
   0.43993614  0.62236680  0.52844029
Direct configuration=    17
   0.44661767  0.47798369  0.66339641
   0.53578126  0.42803145  0.63260111
   0.59642652  0.67409725  0.45865103
   0.48651648  0.53203233  0.37975470
   0.62068594  0.28194481  0.63824371
   0.69808808  0.59512230  0.46267208
   0.44629278  0.57843707  0.59482010
   0.45615186  0.45605775  0.55299261
   0.44785923  0.35755683  0.55534662
   0.44821861  0.45505268  0.41639739
   0.44437604  0.40936234  0.48531045
   0.53275710  0.54252506  0.51771612
   0.53661826  0.61377772  0.41132466
   0.32411162  0.50097146  0.54348051
   0.50723910  0.47032985  0.48291325
   0.47756713  0.62600928  0.45730759
   0.39631681  0.52175678  0.58526439
   0.44031712  0.62186420  0.52725737
Direct configuration=    18
   0.44610314  0.47790617  0.66620423
   0.53532824  0.42763950  0.63037390
   0.59663982  0.67362822  0.45952071
   0.48755913  0.53319549  0.38004416
   0.62009221  0.28268030  0.63792520
   0.69678589  0.59521094  0.46278072
   0.44820829  0.57821981  0.59505318
   0.45442733  0.45634134  0.55362855
   0.44982734  0.36092978  0.55628704
   0.44947234  0.45383039  0.41736073
   0.44440513  0.40750561  0.48402052
   0.53037504  0.54421645  0.51633603
   0.53808026  0.61349522  0.40926569
   0.32383675  0.50071799  0.54313620
   0.50505190  0.46994828  0.48235149
   0.47821143  0.62577758  0.45824368
   0.39682870  0.52073529  0.58513310
   0.44070867  0.62093446  0.52778493
Direct configuration=    19
   0.44473759  0.47770043  0.67365619
   0.53412594  0.42659929  0.62446288
   0.59720592  0.67238342  0.46182886
   0.49032631  0.53628253  0.38081236
   0.61851643  0.28463227  0.63707989
   0.69332987  0.59544619  0.46306906
   0.45329207  0.57764323  0.59567179
   0.44985042  0.45709401  0.55531635
   0.45505070  0.36988158  0.55878291
   0.45279974  0.45058643  0.41991747
   0.44448232  0.40257786  0.48059706
   0.52405306  0.54870541  0.51267327
   0.54196042  0.61274546  0.40380118
   0.32310727  0.50004529  0.54222241
   0.49924706  0.46893559  0.48086057
   0.47992140  0.62516265  0.46072808
   0.39818724  0.51802428  0.58478466
   0.44174783  0.61846692  0.52918509
Direct configuration=    20
   0.44451483  0.47739196  0.67482612
   0.53349638  0.42609028  0.62186378
   0.59705497  0.67234770  0.46321926
   0.49079295  0.53632485  0.38107220
   0.61758039  0.28570563  0.63664635
   0.69207759  0.59520542  0.46313777
   0.45551426  0.57622791  0.59654292
   0.44759781  0.45682005  0.55626270
   0.45781209  0.37396561  0.56041970
   0.45336596  0.44957386  0.41808424
   0.44422657  0.40020258  0.48041794
   0.52058627  0.55067375  0.51086648
   0.54286765  0.61289238  0.40242948
   0.32395644  0.50010096  0.54259589
   0.49865240  0.46991477  0.48251692
   0.48232416  0.62476956  0.46015061
   0.39712990  0.51719932  0.58435101
   0.44239098  0.61750626  0.53004671
Direct configuration=    21
   0.44416692  0.47691018  0.67665332
   0.53251314  0.42529532  0.61780448
   0.59681922  0.67229192  0.46539079
   0.49152175  0.53639095  0.38147801
   0.61611849  0.28738200  0.63596925
   0.69012176  0.59482938  0.46324509
   0.45898488  0.57401746  0.59790346
   0.44407967  0.45639217  0.55774072
   0.46212483  0.38034408  0.56297604
   0.45425028  0.44799242  0.41522109
   0.44382713  0.39649286  0.48013820
   0.51517182  0.55374790  0.50804463
   0.54428457  0.61312183  0.40028715
   0.32528269  0.50018789  0.54317918
   0.49772366  0.47144406  0.48510380
   0.48607680  0.62415563  0.45924872
   0.39547854  0.51591091  0.58367375
   0.44339546  0.61600589  0.53139240
Direct configuration=    22
   0.44365621  0.47707863  0.67517947
   0.53368801  0.42598158  0.61674178
   0.59587750  0.67281931  0.46663349
   0.49116175  0.53485110  0.38152041
   0.61520875  0.28831340  0.63564249
   0.68964537  0.59418801  0.46311634
   0.45996441  0.57144459  0.59905981
   0.44193432  0.45697980  0.55791228
   0.46344258  0.38013412  0.56346631
   0.45460666  0.44673329  0.41489551
   0.44434165  0.39709058  0.47990679
   0.51223859  0.55477150  0.50713659
   0.54469789  0.61370875  0.40006894
   0.32628110  0.50043524  0.54387145
   0.49780440  0.47225433  0.48629697
   0.48765838  0.62422540  0.45929053
   0.39428025  0.51648028  0.58408215
   0.44545377  0.61542293  0.53062876
Direct configuration=    23
   0.44231864  0.47751979  0.67131941
   0.53676502  0.42777894  0.61395855
   0.59341111  0.67420055  0.46988814
   0.49021891  0.53081820  0.38163148
   0.61282613  0.29075277  0.63478670
   0.68839768  0.59250825  0.46277916
   0.46252985  0.56470617  0.60208833
   0.43631558  0.45851881  0.55836161
   0.46689381  0.37958422  0.56475034
   0.45554004  0.44343561  0.41404282
   0.44568920  0.39865601  0.47930075
   0.50455640  0.55745233  0.50475842
   0.54578040  0.61524591  0.39949742
   0.32889596  0.50108307  0.54568451
   0.49801586  0.47437645  0.48942192
   0.49180059  0.62440813  0.45940001
   0.39114190  0.51797149  0.58515176
   0.45084454  0.61389614  0.52862876
Direct configuration=    24
   0.44157807  0.47783528  0.66945108
   0.53868264  0.42977497  0.61263360
   0.59192497  0.67506866  0.47172378
   0.49050645  0.52977509  0.38160110
   0.61142801  0.29211089  0.63431314
   0.68763480  0.59168188  0.46238737
   0.46304182  0.56170598  0.60189681
   0.43447252  0.45808225  0.55750988
   0.46737656  0.37929541  0.56415071
   0.45642476  0.44254756  0.41389605
   0.44683732  0.39980168  0.48121232
   0.50193876  0.55665704  0.50411089
   0.54620053  0.61458478  0.39846194
   0.32875767  0.50087060  0.54576139
   0.49779701  0.47434003  0.49008063
   0.49313640  0.62611777  0.45911703
   0.39058418  0.51981177  0.58722053
   0.45361912  0.61285119  0.52992180
Direct configuration=    25
   0.44085588  0.47814293  0.66762912
   0.54055267  0.43172147  0.61134154
   0.59047571  0.67591522  0.47351386
   0.49078685  0.52875787  0.38157147
   0.61006460  0.29343530  0.63385133
   0.68689085  0.59087602  0.46200532
   0.46354109  0.55878024  0.60171005
   0.43267521  0.45765653  0.55667930
   0.46784734  0.37901377  0.56356596
   0.45728752  0.44168154  0.41375293
   0.44795695  0.40091893  0.48307646
   0.49938608  0.55588148  0.50347943
   0.54661024  0.61394006  0.39745217
   0.32862281  0.50066341  0.54583636
   0.49758358  0.47430451  0.49072300
   0.49443907  0.62778498  0.45884108
   0.39004030  0.52160639  0.58923795
   0.45632485  0.61183219  0.53118275
Direct configuration=    26
   0.44074302  0.47725362  0.66830734
   0.54090260  0.43361055  0.60994348
   0.58957328  0.67622329  0.47449472
   0.49178425  0.52936076  0.38142036
   0.60900882  0.29443873  0.63349442
   0.68598823  0.59061424  0.46149379
   0.46398213  0.55841868  0.59961352
   0.43213513  0.45688954  0.55562516
   0.46774534  0.37955519  0.56389361
   0.45794245  0.44142350  0.41426997
   0.44857128  0.40180797  0.48439751
   0.50044609  0.55274713  0.50241253
   0.54696248  0.61253630  0.39680860
   0.32825801  0.50013880  0.54564680
   0.49745281  0.47313386  0.48994177
   0.49408811  0.62873910  0.45963357
   0.38947442  0.52281631  0.59005895
   0.45688315  0.61320527  0.53399396
Direct configuration=    27
   0.44065272  0.47654213  0.66884994
   0.54118255  0.43512190  0.60882498
   0.58885130  0.67646976  0.47527944
   0.49258221  0.52984309  0.38129947
   0.60816416  0.29524152  0.63320887
   0.68526610  0.59040480  0.46108454
   0.46433499  0.55812942  0.59793622
   0.43170304  0.45627593  0.55478180
   0.46766374  0.37998836  0.56415575
   0.45846641  0.44121706  0.41468363
   0.44906277  0.40251923  0.48545441
   0.50129415  0.55023952  0.50155897
   0.54724428  0.61141323  0.39629371
   0.32796616  0.49971910  0.54549515
   0.49734819  0.47219729  0.48931675
   0.49380733  0.62950244  0.46026760
   0.38902169  0.52378429  0.59071578
   0.45732981  0.61430379  0.53624305
Direct configuration=    28
   0.44087772  0.47538694  0.66908118
   0.54073196  0.43745484  0.60715410
   0.58805310  0.67638850  0.47595720
   0.49333617  0.52995770  0.38107458
   0.60693854  0.29643823  0.63278429
   0.68393992  0.59037665  0.46034876
   0.46478449  0.55776214  0.59627041
   0.43070168  0.45644288  0.55477148
   0.46760954  0.38068571  0.56587720
   0.45907472  0.44128774  0.41489677
   0.44913504  0.40260234  0.48533535
   0.50205964  0.55056804  0.50143169
   0.54757097  0.61065763  0.39720031
   0.32822534  0.49911809  0.54565648
   0.49786624  0.47012257  0.48787140
   0.49327143  0.62872116  0.46173129
   0.38842674  0.52404614  0.59084628
   0.45933835  0.61489553  0.53716131
Direct configuration=    29
   0.44117980  0.47383607  0.66939162
   0.54012702  0.44058685  0.60491092
   0.58698149  0.67627941  0.47686709
   0.49434838  0.53011158  0.38077266
   0.60529313  0.29804484  0.63221429
   0.68215951  0.59033887  0.45936096
   0.46538795  0.55726906  0.59403403
   0.42935735  0.45666702  0.55475763
   0.46753678  0.38162192  0.56818829
   0.45989138  0.44138262  0.41518291
   0.44923207  0.40271392  0.48517552
   0.50308732  0.55100908  0.50126081
   0.54800957  0.60964322  0.39841743
   0.32857329  0.49831124  0.54587307
   0.49856173  0.46733723  0.48593098
   0.49255198  0.62767227  0.46369631
   0.38762801  0.52439768  0.59102147
   0.46203485  0.61568996  0.53839409
Direct configuration=    30
   0.44142239  0.47313870  0.66906955
   0.53976719  0.44268976  0.60357314
   0.58635242  0.67617798  0.47741195
   0.49467598  0.52970499  0.38057081
   0.60421428  0.29913102  0.63183016
   0.68094798  0.59034430  0.45869082
   0.46554265  0.55631378  0.59359268
   0.42834979  0.45695337  0.55479658
   0.46714768  0.38232987  0.56913561
   0.46020396  0.44138451  0.41468818
   0.44892978  0.40195376  0.48551117
   0.50360747  0.55091231  0.50125702
   0.54823210  0.60944357  0.39986262
   0.32894851  0.49767247  0.54602335
   0.49963669  0.46721745  0.48543068
   0.49273043  0.62703436  0.46374965
   0.38761594  0.52437846  0.59123305
   0.46361637  0.61613217  0.53902308
Direct configuration=    31
   0.44215018  0.47104657  0.66810332
   0.53868772  0.44899850  0.59955982
   0.58446519  0.67587371  0.47904652
   0.49565876  0.52848524  0.37996525
   0.60097774  0.30238958  0.63067776
   0.67731340  0.59036060  0.45668038
   0.46600675  0.55344795  0.59226863
   0.42532710  0.45781241  0.55491341
   0.46598038  0.38445371  0.57197757
   0.46114171  0.44139019  0.41320398
   0.44802290  0.39967330  0.48651811
   0.50516791  0.55062201  0.50124563
   0.54889969  0.60884460  0.40419820
   0.33007417  0.49575617  0.54647418
   0.50286157  0.46685809  0.48392978
   0.49326576  0.62512061  0.46390966
   0.38757973  0.52432079  0.59186780
   0.46836094  0.61745881  0.54091007
Direct configuration=    32
   0.44360575  0.46686233  0.66617087
   0.53652877  0.46161599  0.59153318
   0.58069074  0.67526515  0.48231567
   0.49762434  0.52604574  0.37875415
   0.59450465  0.30890669  0.62837296
   0.67004425  0.59039319  0.45265951
   0.46693494  0.54771628  0.58962053
   0.41928174  0.45953048  0.55514709
   0.46364578  0.38870138  0.57766148
   0.46301721  0.44140154  0.41023558
   0.44620915  0.39511237  0.48853200
   0.50828881  0.55004141  0.50122286
   0.55023486  0.60764668  0.41286936
   0.33232549  0.49192357  0.54737585
   0.50931132  0.46613938  0.48092799
   0.49433642  0.62129311  0.46422967
   0.38750731  0.52420544  0.59313729
   0.47785007  0.62011209  0.54468404
Direct configuration=    33
   0.44286331  0.46899657  0.66715655
   0.53762997  0.45518024  0.59562729
   0.58261596  0.67557555  0.48064819
   0.49662177  0.52729004  0.37937189
   0.59780635  0.30558253  0.62954856
   0.67375200  0.59037657  0.45471042
   0.46646150  0.55063981  0.59097123
   0.42236528  0.45865415  0.55502790
   0.46483658  0.38653479  0.57476231
   0.46206058  0.44139575  0.41174966
   0.44713428  0.39743874  0.48750478
   0.50669695  0.55033756  0.50123447
   0.54955383  0.60825770  0.40844650
   0.33117717  0.49387845  0.54691594
   0.50602152  0.46650597  0.48245910
   0.49379031  0.62324539  0.46406644
   0.38754425  0.52426427  0.59248977
   0.47300999  0.61875874  0.54275906
Direct configuration=    34
   0.44308338  0.46808299  0.66658819
   0.53760997  0.45820825  0.59371712
   0.58191203  0.67595649  0.48204689
   0.49724319  0.52692445  0.37897127
   0.59608363  0.30738015  0.62893167
   0.67178812  0.59032850  0.45362564
   0.46664056  0.54959189  0.59084352
   0.42071833  0.45850268  0.55435575
   0.46391807  0.38773343  0.57537872
   0.46227185  0.44046348  0.41238503
   0.44727679  0.39735597  0.48780278
   0.50729187  0.54970067  0.50135549
   0.55019625  0.60729503  0.40976092
   0.33214384  0.49273077  0.54718386
   0.50717722  0.46656845  0.48157703
   0.49387852  0.62281896  0.46369560
   0.38753603  0.52458588  0.59310839
   0.47517193  0.61868478  0.54412218
Direct configuration=    35
   0.44374359  0.46534226  0.66488313
   0.53754996  0.46729227  0.58798660
   0.57980023  0.67709931  0.48624300
   0.49910748  0.52582765  0.37776939
   0.59091546  0.31277301  0.62708102
   0.66589651  0.59018431  0.45037130
   0.46717773  0.54644812  0.59046040
   0.41577748  0.45804827  0.55233931
   0.46116257  0.39132938  0.57722796
   0.46290567  0.43766667  0.41429112
   0.44770431  0.39710766  0.48869678
   0.50907666  0.54778999  0.50171854
   0.55212350  0.60440702  0.41370420
   0.33504386  0.48928774  0.54798763
   0.51064431  0.46675590  0.47893084
   0.49414315  0.62153969  0.46258308
   0.38751138  0.52555071  0.59496424
   0.48165777  0.61846288  0.54821153
Direct configuration=    36
   0.44506401  0.45986079  0.66147299
   0.53742994  0.48546032  0.57652557
   0.57557662  0.67938494  0.49463521
   0.50283605  0.52363406  0.37536565
   0.58057912  0.32355872  0.62337971
   0.65411327  0.58989591  0.44386263
   0.46825207  0.54016059  0.58969415
   0.40589579  0.45713944  0.54830641
   0.45565155  0.39852127  0.58092644
   0.46417329  0.43207304  0.41810332
   0.44855936  0.39661103  0.49048477
   0.51264622  0.54396865  0.50244465
   0.55597801  0.59863100  0.42159076
   0.34084389  0.48240168  0.54959516
   0.51757849  0.46713079  0.47363845
   0.49467241  0.61898113  0.46035804
   0.38746207  0.52748037  0.59867596
   0.49462944  0.61801910  0.55639022
Direct configuration=    37
   0.44386974  0.46481858  0.66455734
   0.53753850  0.46902796  0.58689167
   0.57939672  0.67731767  0.48704475
   0.49946369  0.52561809  0.37753975
   0.58992797  0.31380343  0.62672741
   0.66477079  0.59015675  0.44974950
   0.46728036  0.54584744  0.59038720
   0.41483343  0.45796144  0.55195402
   0.46063607  0.39201646  0.57758130
   0.46302677  0.43713228  0.41465532
   0.44778600  0.39706021  0.48886759
   0.50941768  0.54742492  0.50178791
   0.55249174  0.60385521  0.41445765
   0.33559797  0.48862988  0.54814120
   0.51130677  0.46679172  0.47842523
   0.49419371  0.62129525  0.46237051
   0.38750667  0.52573506  0.59531884
   0.48289702  0.61842049  0.54899288
Direct configuration=    38
   0.44399515  0.46361495  0.66381778
   0.53921225  0.47140915  0.58506964
   0.57855876  0.67847287  0.48963306
   0.49990411  0.52455170  0.37710051
   0.58740547  0.31632739  0.62582382
   0.66220830  0.58981874  0.44839826
   0.46677284  0.54685848  0.59100655
   0.41262863  0.45649045  0.55014242
   0.45943402  0.39310681  0.57780165
   0.46352499  0.43613376  0.41596728
   0.44898595  0.39850485  0.48972691
   0.50964809  0.54707764  0.50138059
   0.55434658  0.60205621  0.41418448
   0.33767310  0.48749515  0.54882164
   0.51173467  0.46645738  0.47701188
   0.49347955  0.62088193  0.46390780
   0.38699395  0.52647647  0.59604058
   0.48543520  0.61717891  0.54961522
Direct configuration=    39
   0.44416276  0.46200632  0.66282939
   0.54144919  0.47459154  0.58263454
   0.57743884  0.68001678  0.49309228
   0.50049272  0.52312650  0.37651348
   0.58403421  0.31970060  0.62461618
   0.65878359  0.58936700  0.44659236
   0.46609454  0.54820972  0.59183430
   0.40968197  0.45452450  0.54772125
   0.45782751  0.39456403  0.57809615
   0.46419085  0.43479926  0.41772068
   0.45058965  0.40043557  0.49087537
   0.50995602  0.54661352  0.50083622
   0.55682552  0.59965190  0.41381941
   0.34044646  0.48597860  0.54973103
   0.51230655  0.46601054  0.47512297
   0.49252509  0.62032954  0.46596235
   0.38630872  0.52746734  0.59700515
   0.48882740  0.61551959  0.55044697
Direct configuration=    40
   0.44437954  0.46151532  0.66160593
   0.54355346  0.47469849  0.58245213
   0.57645210  0.68082830  0.49530869
   0.50031232  0.52178599  0.37603868
   0.58143410  0.32215811  0.62369903
   0.65712177  0.58869246  0.44583313
   0.46505441  0.55002455  0.59398786
   0.40842469  0.45238374  0.54664492
   0.45785162  0.39481138  0.57808065
   0.46459626  0.43472482  0.41649346
   0.45263717  0.40124367  0.49245937
   0.50981636  0.54630328  0.49939297
   0.55648273  0.59903742  0.41400681
   0.34083805  0.48633043  0.55067711
   0.51246245  0.46629872  0.47514089
   0.49395711  0.61994345  0.46575248
   0.38612853  0.52791626  0.59707579
   0.49043893  0.61421645  0.55080017
Direct configuration=    41
   0.44477181  0.46062687  0.65939208
   0.54736114  0.47489202  0.58212206
   0.57466660  0.68229676  0.49931929
   0.49998587  0.51936035  0.37517953
   0.57672920  0.32660499  0.62203944
   0.65411469  0.58747187  0.44445932
   0.46317229  0.55330848  0.59788473
   0.40614965  0.44851002  0.54469730
   0.45789526  0.39525897  0.57805260
   0.46532985  0.43459011  0.41427282
   0.45634217  0.40270591  0.49532563
   0.50956363  0.54574190  0.49678141
   0.55586246  0.59792551  0.41434593
   0.34154662  0.48696707  0.55238905
   0.51274455  0.46682020  0.47517330
   0.49654835  0.61924481  0.46537271
   0.38580249  0.52872858  0.59720361
   0.49335498  0.61185842  0.55143930
Direct configuration=    42
   0.44505926  0.46102768  0.65867851
   0.54835978  0.47492598  0.58226942
   0.57382951  0.68281730  0.50143590
   0.50003257  0.51878798  0.37436823
   0.57355839  0.32939672  0.62094860
   0.65296042  0.58653443  0.44414515
   0.46267915  0.55455248  0.60078106
   0.40398302  0.44671202  0.54440707
   0.45924565  0.39466154  0.57876018
   0.46556299  0.43364023  0.41437802
   0.45959789  0.40315640  0.49361204
   0.50976146  0.54520479  0.49575852
   0.55457769  0.59768015  0.41396052
   0.34095534  0.48734316  0.55317591
   0.51282944  0.46693947  0.47520194