       N       E                     dE             d eps       ncg     rms          rms(c)
DAV:   1     0.491527222249E+03    0.49153E+03   -0.19936E+04   144   0.552E+02
DAV:   2     0.502806927699E+02   -0.44125E+03   -0.43413E+03   184   0.190E+02
DAV:   3    -0.720944570635E+02   -0.12238E+03   -0.11789E+03   136   0.808E+01
DAV:   4    -0.930273772136E+02   -0.20933E+02   -0.19286E+02   120   0.334E+01
DAV:   5    -0.948512519487E+02   -0.18239E+01   -0.17972E+01   144   0.105E+01    0.452E+01
DAV:   6    -0.124081440657E+02    0.82443E+02   -0.63321E+02   144   0.103E+02    0.300E+01
DAV:   7    -0.705614304686E+01    0.53520E+01   -0.30507E+02   136   0.913E+01    0.192E+01
DAV:   8    -0.370185971460E+00    0.66860E+01   -0.67093E+01   128   0.279E+01    0.109E+01
DAV:   9     0.421344376860E+00    0.79153E+00   -0.16929E+01   160   0.134E+01    0.836E+00
DAV:  10     0.124951401635E+01    0.82817E+00   -0.59191E+00   136   0.857E+00    0.554E+00
DAV:  11     0.139738690744E+01    0.14787E+00   -0.58315E+00   144   0.535E+00    0.340E+00
DAV:  12     0.161626449002E+01    0.21888E+00   -0.21512E+00   136   0.383E+00    0.233E+00
DAV:  13     0.168267044186E+01    0.66406E-01   -0.68845E-01   144   0.318E+00    0.113E+00
DAV:  14     0.170036861122E+01    0.17698E-01   -0.21529E-01   128   0.130E+00    0.630E-01
DAV:  15     0.170724707809E+01    0.68785E-02   -0.48662E-02   136   0.675E-01    0.316E-01
DAV:  16     0.170701714734E+01   -0.22993E-03   -0.16933E-02   120   0.381E-01    0.190E-01
DAV:  17     0.170316804515E+01   -0.38491E-02   -0.81664E-03   120   0.233E-01    0.144E-01
DAV:  18     0.169690426537E+01   -0.62638E-02   -0.42869E-03   112   0.171E-01    0.918E-02
DAV:  19     0.168944928251E+01   -0.74550E-02   -0.34344E-03   104   0.159E-01    0.621E-02
DAV:  20     0.168331967892E+01   -0.61296E-02   -0.13345E-03    96   0.952E-02    0.392E-02
DAV:  21     0.167995933513E+01   -0.33603E-02   -0.40489E-04    96   0.620E-02    0.277E-02
DAV:  22     0.167623545668E+01   -0.37239E-02   -0.35576E-04    88   0.550E-02    0.210E-02
DAV:  23     0.167399309495E+01   -0.22424E-02   -0.20485E-04    96   0.321E-02    0.909E-03
DAV:  24     0.167251579162E+01   -0.14773E-02   -0.10707E-04    88   0.246E-02    0.640E-03
DAV:  25     0.167179497374E+01   -0.72082E-03   -0.68126E-05    80   0.170E-02    0.469E-03
DAV:  26     0.167139741475E+01   -0.39756E-03   -0.37984E-05    80   0.132E-02    0.228E-03
DAV:  27     0.167119766043E+01   -0.19975E-03   -0.20035E-05    72   0.106E-02    0.266E-03
DAV:  28     0.167109970094E+01   -0.97959E-04   -0.13690E-05    72   0.844E-03
   1 F= 0.16710997E+01 E0= 0.17080277E+01  d E =0.167110E+01
       N       E                     dE             d eps       ncg     rms          rms(c)
DAV:   1     0.713801195278E+02    0.69709E+02   -0.12332E+04   120   0.451E+02    0.386E+01
DAV:   2    -0.862023288735E+02   -0.15758E+03   -0.23696E+03   144   0.246E+02    0.393E+01
DAV:   3    -0.736494768845E+02    0.12553E+02   -0.56168E+02   176   0.101E+02    0.342E+01
DAV:   4    -0.583874027774E+02    0.15262E+02   -0.69695E+01   136   0.270E+01    0.287E+01
DAV:   5    -0.547476603924E+02    0.36397E+01   -0.24719E+01   160   0.116E+01    0.258E+01
DAV:   6    -0.550894564678E+02   -0.34180E+00   -0.93578E+01   152   0.109E+01    0.345E+01
DAV:   7    -0.502451384748E+02    0.48443E+01   -0.17162E+01   152   0.142E+01    0.179E+01
DAV:   8    -0.491696896090E+02    0.10754E+01   -0.73390E+01   152   0.121E+01    0.146E+01
DAV:   9    -0.651891137101E+02   -0.16019E+02   -0.12868E+02   144   0.195E+01    0.410E+01
DAV:  10    -0.580691453213E+02    0.71200E+01   -0.92845E+00   136   0.142E+01    0.358E+01
DAV:  11    -0.517008778759E+02    0.63683E+01   -0.10195E+01   136   0.998E+00    0.191E+01
DAV:  12    -0.502829370103E+02    0.14179E+01   -0.23992E+00   160   0.342E+00    0.122E+01
DAV:  13    -0.497916279249E+02    0.49131E+00   -0.56131E-01   136   0.206E+00    0.155E+01
DAV:  14    -0.490079435408E+02    0.78368E+00   -0.17426E-01   152   0.115E+00    0.137E+01
DAV:  15    -0.466099840749E+02    0.23980E+01   -0.47188E+00   144   0.383E+00    0.519E+00
DAV:  16    -0.462313324305E+02    0.37865E+00   -0.40990E-01   144   0.173E+00    0.492E+00
DAV:  17    -0.454223124824E+02    0.80902E+00   -0.35319E+00   144   0.264E+00    0.644E+00
DAV:  18    -0.453354848321E+02    0.86828E-01   -0.14354E+00   144   0.198E+00    0.658E+00
DAV:  19    -0.452368571241E+02    0.98628E-01   -0.65807E+00   152   0.162E+00    0.785E+00
DAV:  20    -0.450973750457E+02    0.13948E+00   -0.19523E-01   144   0.976E-01    0.641E+00
DAV:  21    -0.450588410003E+02    0.38534E-01   -0.46753E-02   152   0.426E-01    0.539E+00
DAV:  22    -0.450038863766E+02    0.54955E-01   -0.36330E-01   144   0.909E-01    0.219E+00
DAV:  23    -0.449966672368E+02    0.72191E-02   -0.48139E-01   152   0.121E+00    0.260E+00
DAV:  24    -0.449405547710E+02    0.56112E-01   -0.75363E-02   144   0.617E-01    0.173E+00
DAV:  25    -0.450354561741E+02   -0.94901E-01   -0.74369E-01   136   0.918E-01    0.201E+00
DAV:  26    -0.450075184729E+02    0.27938E-01   -0.94249E-02   136   0.561E-01    0.230E+00
DAV:  27    -0.449849348934E+02    0.22584E-01   -0.44608E-02   144   0.417E-01    0.235E+00
DAV:  28    -0.449822494570E+02    0.26854E-02   -0.16633E-01   152   0.533E-01    0.174E+00
DAV:  29    -0.449538582732E+02    0.28391E-01   -0.63335E-02   144   0.463E-01    0.930E-01
DAV:  30    -0.449533399651E+02    0.51831E-03   -0.75768E-03   144   0.198E-01    0.928E-01
DAV:  31    -0.449537574647E+02   -0.41750E-03   -0.32487E-03   104   0.103E-01    0.761E-01
DAV:  32    -0.449561324723E+02   -0.23750E-02   -0.57766E-03   144   0.142E-01    0.570E-01
DAV:  33    -0.449544261721E+02    0.17063E-02   -0.31077E-03   136   0.866E-02    0.426E-01
DAV:  34    -0.449527156845E+02    0.17105E-02   -0.89105E-03   136   0.113E-01    0.181E-01
DAV:  35    -0.449535686067E+02   -0.85292E-03   -0.80469E-04   112   0.776E-02    0.111E-01
DAV:  36    -0.449543023776E+02   -0.73377E-03   -0.47637E-04   104   0.627E-02    0.103E-01
DAV:  37    -0.449544340131E+02   -0.13164E-03   -0.63637E-04    96   0.501E-02    0.101E-01
DAV:  38    -0.449546019580E+02   -0.16794E-03   -0.12889E-04    72   0.365E-02    0.495E-02
DAV:  39    -0.449546656296E+02   -0.63672E-04   -0.10541E-04    72   0.255E-02
   2 F= -.44954666E+02 E0= -.44885348E+02  d E =-.466258E+02
       N       E                     dE             d eps       ncg     rms          rms(c)
DAV:   1    -0.449921043788E+02   -0.37502E-01   -0.12014E+00    96   0.776E+00    0.371E-01
DAV:   2    -0.450361723532E+02   -0.44068E-01   -0.32131E-01   152   0.154E+00    0.274E+00
DAV:   3    -0.449888579149E+02    0.47314E-01   -0.19577E-01   152   0.750E-01    0.491E-01
DAV:   4    -0.450003608254E+02   -0.11503E-01   -0.27992E-02   144   0.293E-01    0.348E-01
DAV:   5    -0.449991362390E+02    0.12246E-02   -0.12617E-02   144   0.157E-01    0.148E-01
DAV:   6    -0.449995294404E+02   -0.39320E-03   -0.30765E-03   152   0.185E-01    0.105E-01
DAV:   7    -0.449997037087E+02   -0.17427E-03   -0.24169E-03   128   0.913E-02    0.761E-02
DAV:   8    -0.449996753047E+02    0.28404E-04   -0.81186E-04   104   0.805E-02
   3 F= -.44999675E+02 E0= -.44929341E+02  d E =-.466708E+02
       N       E                     dE             d eps       ncg     rms          rms(c)
DAV:   1     0.315962490222E+02    0.76596E+02   -0.43778E+03   152   0.401E+02    0.234E+01
DAV:   2    -0.459433027438E+02   -0.77540E+02   -0.95309E+02   144   0.102E+02    0.393E+01
DAV:   3    -0.299482554773E+02    0.15995E+02   -0.27370E+02   152   0.967E+01    0.305E+01
DAV:   4    -0.286681744566E+02    0.12801E+01   -0.13383E+02   144   0.294E+01    0.172E+01
DAV:   5    -0.232714181081E+02    0.53968E+01   -0.22514E+01   160   0.120E+01    0.138E+01
DAV:   6    -0.219705189372E+02    0.13009E+01   -0.14071E+01   152   0.727E+00    0.105E+01
DAV:   7    -0.211712879631E+02    0.79923E+00   -0.84269E+00   152   0.662E+00    0.985E+00
DAV:   8    -0.210257802090E+02    0.14551E+00   -0.29270E+01   152   0.480E+00    0.639E+00
DAV:   9    -0.213829540546E+02   -0.35717E+00   -0.66817E+00   160   0.390E+00    0.650E+00
DAV:  10    -0.212563492150E+02    0.12660E+00   -0.63598E+00   160   0.270E+00    0.500E+00
DAV:  11    -0.209594848781E+02    0.29686E+00   -0.31647E+00   152   0.239E+00    0.407E+00
DAV:  12    -0.207974155234E+02    0.16207E+00   -0.62268E-01   160   0.142E+00    0.260E+00
DAV:  13    -0.207496887437E+02    0.47727E-01   -0.31468E-01   152   0.927E-01    0.179E+00
DAV:  14    -0.207180602206E+02    0.31629E-01   -0.92128E-02   152   0.500E-01    0.162E+00
DAV:  15    -0.206994342749E+02    0.18626E-01   -0.22943E-02   160   0.281E-01    0.134E+00
DAV:  16    -0.206834391117E+02    0.15995E-01   -0.22229E-02   152   0.271E-01    0.865E-01
DAV:  17    -0.206817274527E+02    0.17117E-02   -0.13203E-02   152   0.271E-01    0.699E-01
DAV:  18    -0.206796161893E+02    0.21113E-02   -0.58752E-02   160   0.285E-01    0.460E-01
DAV:  19    -0.206796146278E+02    0.15615E-05   -0.28895E-03   128   0.129E-01    0.369E-01
DAV:  20    -0.206796101062E+02    0.45216E-05   -0.40835E-03   144   0.113E-01    0.241E-01
DAV:  21    -0.206806001655E+02   -0.99006E-03   -0.29475E-03   120   0.829E-02    0.819E-02
DAV:  22    -0.206811011417E+02   -0.50098E-03   -0.15185E-03   104   0.527E-02    0.134E-01
DAV:  23    -0.206817322757E+02   -0.63113E-03   -0.12426E-03    96   0.473E-02    0.604E-02
DAV:  24    -0.206823472047E+02   -0.61493E-03   -0.23465E-04    96   0.298E-02    0.745E-02
DAV:  25    -0.206829672707E+02   -0.62007E-03   -0.22209E-04    80   0.331E-02    0.380E-02
DAV:  26    -0.206833020373E+02   -0.33477E-03   -0.15313E-04    64   0.242E-02    0.427E-02
DAV:  27    -0.206834480461E+02   -0.14601E-03   -0.27921E-05    48   0.161E-02    0.332E-02
DAV:  28    -0.206836644625E+02   -0.21642E-03   -0.10579E-04    64   0.163E-02    0.116E-02
DAV:  29    -0.206837297959E+02   -0.65333E-04   -0.13560E-05    48   0.119E-02
   4 F= -.20683730E+02 E0= -.20577520E+02  d E =0.243159E+02
       N       E                     dE             d eps       ncg     rms          rms(c)
DAV:   1    -0.313153119267E+02   -0.10632E+02   -0.21195E+03   120   0.282E+02    0.216E+01
DAV:   2    -0.869233291784E+02   -0.55608E+02   -0.69251E+02   152   0.851E+01    0.388E+01
DAV:   3    -0.569081695403E+02    0.30015E+02   -0.24395E+02   144   0.885E+01    0.184E+01
DAV:   4    -0.545319908489E+02    0.23762E+01   -0.42435E+01   152   0.179E+01    0.195E+01
DAV:   5    -0.537597515425E+02    0.77224E+00   -0.58526E+01   152   0.159E+01    0.128E+01
DAV:   6    -0.520928020478E+02    0.16669E+01   -0.13651E+01   152   0.714E+00    0.988E+00
DAV:   7    -0.508864804159E+02    0.12063E+01   -0.14176E+01   160   0.522E+00    0.691E+00
DAV:   8    -0.508396663871E+02    0.46814E-01   -0.99071E+00   168   0.493E+00    0.105E+01
DAV:   9    -0.507268849578E+02    0.11278E+00   -0.45274E+00   152   0.372E+00    0.899E+00
DAV:  10    -0.505065638375E+02    0.22032E+00   -0.10340E+01   160   0.176E+00    0.325E+00
DAV:  11    -0.505160182971E+02   -0.94545E-02   -0.38370E-01   144   0.179E+00    0.232E+00
DAV:  12    -0.505079313535E+02    0.80869E-02   -0.30155E-01   160   0.114E+00    0.221E+00
DAV:  13    -0.504326182243E+02    0.75313E-01   -0.15074E-01   152   0.745E-01    0.223E+00
DAV:  14    -0.503951998585E+02    0.37418E-01   -0.84583E-02   160   0.542E-01    0.843E-01
DAV:  15    -0.504005878502E+02   -0.53880E-02   -0.55135E-02   160   0.519E-01    0.705E-01
DAV:  16    -0.503992009362E+02    0.13869E-02   -0.15488E-02   152   0.282E-01    0.260E-01
DAV:  17    -0.504011400612E+02   -0.19391E-02   -0.39696E-03   144   0.177E-01    0.148E-01
DAV:  18    -0.504019754654E+02   -0.83540E-03   -0.10584E-03   120   0.860E-02    0.108E-01
DAV:  19    -0.504027490438E+02   -0.77358E-03   -0.30676E-04    88   0.629E-02    0.641E-02
DAV:  20    -0.504036302169E+02   -0.88117E-03   -0.31598E-04    88   0.518E-02    0.118E-01
DAV:  21    -0.504043464288E+02   -0.71621E-03   -0.13552E-03    88   0.431E-02    0.982E-02
DAV:  22    -0.504046419244E+02   -0.29550E-03   -0.12203E-04    72   0.333E-02    0.653E-02
DAV:  23    -0.504048181185E+02   -0.17619E-03   -0.63843E-05    72   0.205E-02    0.342E-02
DAV:  24    -0.504051378406E+02   -0.31972E-03   -0.90358E-05    80   0.170E-02    0.708E-03
DAV:  25    -0.504054321901E+02   -0.29435E-03   -0.61816E-05    80   0.133E-02    0.675E-03
DAV:  26    -0.504055599306E+02   -0.12774E-03   -0.25952E-05    72   0.931E-03    0.121E-02
DAV:  27    -0.504055995884E+02   -0.39658E-04   -0.13530E-05    72   0.714E-03
   5 F= -.50405600E+02 E0= -.50316473E+02  d E =-.540592E+01
       N       E                     dE             d eps       ncg     rms          rms(c)
DAV:   1    -0.507821763009E+02   -0.37662E+00   -0.28193E+01   112   0.440E+01    0.221E+00
DAV:   2    -0.512034516533E+02   -0.42128E+00   -0.44826E+00   112   0.846E+00    0.397E+00
DAV:   3    -0.513532594956E+02   -0.14981E+00   -0.25346E+00   152   0.360E+00    0.947E+00
DAV:   4    -0.512487545109E+02    0.10450E+00   -0.45700E+00   152   0.266E+00    0.663E+00
DAV:   5    -0.510790682876E+02    0.16969E+00   -0.31838E+00   160   0.927E-01    0.172E+00
DAV:   6    -0.510772431249E+02    0.18252E-02   -0.23146E-01   152   0.127E+00    0.115E+00
DAV:   7    -0.510703080429E+02    0.69351E-02   -0.83810E-02   152   0.726E-01    0.650E-01
DAV:   8    -0.510688047963E+02    0.15032E-02   -0.26192E-02   152   0.328E-01    0.382E-01
DAV:   9    -0.510696847529E+02   -0.87996E-03   -0.27574E-02   152   0.287E-01    0.330E-01
DAV:  10    -0.510687994892E+02    0.88526E-03   -0.17538E-02   136   0.169E-01    0.221E-01
DAV:  11    -0.510684940375E+02    0.30545E-03   -0.46272E-03   144   0.183E-01    0.136E-01
DAV:  12    -0.510690404141E+02   -0.54638E-03   -0.55638E-04    96   0.796E-02    0.877E-02
DAV:  13    -0.510691087811E+02   -0.68367E-04   -0.10648E-04    56   0.427E-02
   6 F= -.51069109E+02 E0= -.50983162E+02  d E =-.606943E+01
       N       E                     dE             d eps       ncg     rms          rms(c)
DAV:   1    -0.509554313647E+02    0.11361E+00   -0.33009E+01   112   0.469E+01    0.240E+00
DAV:   2    -0.513328601315E+02   -0.37743E+00   -0.43755E+00   128   0.864E+00    0.250E+00
DAV:   3    -0.516736196783E+02   -0.34076E+00   -0.23645E+00   152   0.333E+00    0.110E+01
DAV:   4    -0.515018847650E+02    0.17173E+00   -0.60129E+00   152   0.299E+00    0.741E+00
DAV:   5    -0.512747823531E+02    0.22710E+00   -0.36698E+00   160   0.998E-01    0.145E+00
DAV:   6    -0.512950497596E+02   -0.20267E-01   -0.28243E-01   152   0.827E-01    0.111E+00
DAV:   7    -0.512820258749E+02    0.13024E-01   -0.10841E-01   152   0.662E-01    0.646E-01
DAV:   8    -0.512817111492E+02    0.31473E-03   -0.31140E-02   160   0.332E-01    0.381E-01
DAV:   9    -0.512815917165E+02    0.11943E-03   -0.20038E-02   152   0.337E-01    0.299E-01
DAV:  10    -0.512808207634E+02    0.77095E-03   -0.96135E-03   144   0.191E-01    0.186E-01
DAV:  11    -0.512808740632E+02   -0.53300E-04   -0.23628E-03   144   0.151E-01    0.145E-01
DAV:  12    -0.512813914955E+02   -0.51743E-03   -0.74200E-04   120   0.107E-01    0.132E-01
DAV:  13    -0.512815590141E+02   -0.16752E-03   -0.20136E-04    56   0.547E-02    0.605E-02
DAV:  14    -0.512816080126E+02   -0.48999E-04   -0.10149E-04    48   0.347E-02
   7 F= -.51281608E+02 E0= -.51198412E+02  d E =-.628193E+01
       N       E                     dE             d eps       ncg     rms          rms(c)
DAV:   1    -0.476815612123E+02    0.36000E+01   -0.96297E+02   112   0.239E+02    0.155E+01
DAV:   2    -0.666925972914E+02   -0.19011E+02   -0.24069E+02   136   0.634E+01    0.302E+01
DAV:   3    -0.572097074964E+02    0.94829E+01   -0.14329E+02   144   0.554E+01    0.209E+01
DAV:   4    -0.581518298083E+02   -0.94212E+00   -0.54080E+01   152   0.177E+01    0.119E+01
DAV:   5    -0.559082437492E+02    0.22436E+01   -0.13807E+01   152   0.903E+00    0.755E+00
DAV:   6    -0.557917583480E+02    0.11649E+00   -0.11784E+01   168   0.452E+00    0.591E+00
DAV:   7    -0.558650195616E+02   -0.73261E-01   -0.55662E+00   144   0.662E+00    0.751E+00
DAV:   8    -0.554719354887E+02    0.39308E+00   -0.34768E+00   152   0.330E+00    0.472E+00
DAV:   9    -0.554054523386E+02    0.66483E-01   -0.20430E+00   160   0.262E+00    0.320E+00
DAV:  10    -0.553246758590E+02    0.80776E-01   -0.95760E-01   160   0.157E+00    0.217E+00
DAV:  11    -0.553012852255E+02    0.23391E-01   -0.23683E-01   152   0.958E-01    0.143E+00
DAV:  12    -0.552924135119E+02    0.88717E-02   -0.87918E-02   152   0.714E-01    0.649E-01
DAV:  13    -0.552897888427E+02    0.26247E-02   -0.36160E-02   152   0.316E-01    0.514E-01
DAV:  14    -0.552899944070E+02   -0.20556E-03   -0.81859E-03   152   0.205E-01    0.241E-01
DAV:  15    -0.552911529040E+02   -0.11585E-02   -0.19090E-03   144   0.139E-01    0.111E-01
DAV:  16    -0.552922416032E+02   -0.10887E-02   -0.12041E-03   136   0.928E-02    0.643E-02
DAV:  17    -0.552926143787E+02   -0.37278E-03   -0.26178E-04    80   0.545E-02    0.364E-02
DAV:  18    -0.552930769534E+02   -0.46257E-03   -0.24062E-04   104   0.458E-02    0.212E-02
DAV:  19    -0.552934868834E+02   -0.40993E-03   -0.59139E-05    72   0.279E-02    0.112E-02
DAV:  20    -0.552937829577E+02   -0.29607E-03   -0.49919E-05    72   0.171E-02    0.890E-03
DAV:  21    -0.552940224538E+02   -0.23950E-03   -0.31742E-05    72   0.157E-02    0.439E-03
DAV:  22    -0.552942098373E+02   -0.18738E-03   -0.31765E-05    48   0.131E-02    0.322E-03
DAV:  23    -0.552942967289E+02   -0.86892E-04   -0.17743E-05    48   0.931E-03
   8 F= -.55294297E+02 E0= -.55223075E+02  d E =-.401269E+01
       N       E                     dE             d eps       ncg     rms          rms(c)
DAV:   1    -0.557378085568E+02   -0.44360E+00   -0.14826E+02   112   0.941E+01    0.555E+00
DAV:   2    -0.587232791638E+02   -0.29855E+01   -0.33223E+01   136   0.222E+01    0.103E+01
DAV:   3    -0.578409634060E+02    0.88232E+00   -0.10449E+01   152   0.866E+00    0.184E+01
DAV:   4    -0.566731246257E+02    0.11678E+01   -0.18670E+01   152   0.813E+00    0.502E+00
DAV:   5    -0.566044183559E+02    0.68706E-01   -0.14668E+00   152   0.270E+00    0.368E+00
DAV:   6    -0.565123787825E+02    0.92040E-01   -0.67155E-01   152   0.168E+00    0.224E+00
DAV:   7    -0.565013046539E+02    0.11074E-01   -0.36037E-01   152   0.157E+00    0.131E+00
DAV:   8    -0.564915106510E+02    0.97940E-02   -0.25414E-01   144   0.146E+00    0.796E-01
DAV:   9    -0.564885196296E+02    0.29910E-02   -0.82361E-02   152   0.515E-01    0.525E-01
DAV:  10    -0.564865191336E+02    0.20005E-02   -0.20612E-02   152   0.328E-01    0.296E-01
DAV:  11    -0.564885769809E+02   -0.20578E-02   -0.70395E-03   152   0.222E-01    0.272E-01
DAV:  12    -0.564889388334E+02   -0.36185E-03   -0.47149E-03   136   0.152E-01    0.115E-01
DAV:  13    -0.564890706352E+02   -0.13180E-03   -0.22480E-03   136   0.109E-01    0.970E-02
DAV:  14    -0.564891351438E+02   -0.64509E-04   -0.33755E-04    88   0.521E-02
   9 F= -.56489135E+02 E0= -.56415251E+02  d E =-.520753E+01
       N       E                     dE             d eps       ncg     rms          rms(c)
DAV:   1    -0.564934385753E+02   -0.43679E-02   -0.85843E-01    96   0.749E+00    0.410E-01
DAV:   2    -0.565115495063E+02   -0.18111E-01   -0.20872E-01   152   0.174E+00    0.115E+00
DAV:   3    -0.565080725041E+02    0.34770E-02   -0.17806E-01   152   0.821E-01    0.140E+00
DAV:   4    -0.564970489053E+02    0.11024E-01   -0.59968E-02   152   0.521E-01    0.297E-01
DAV:   5    -0.564991684986E+02   -0.21196E-02   -0.74733E-03   152   0.187E-01    0.173E-01
DAV:   6    -0.564994053421E+02   -0.23684E-03   -0.58834E-03   152   0.157E-01    0.163E-01
DAV:   7    -0.564993912065E+02    0.14136E-04   -0.34291E-03   136   0.113E-01    0.111E-01
DAV:   8    -0.564992774258E+02    0.11378E-03   -0.11115E-03   128   0.861E-02    0.519E-02
DAV:   9    -0.564993224127E+02   -0.44987E-04   -0.23472E-04    80   0.557E-02
  10 F= -.56499322E+02 E0= -.56425891E+02  d E =-.521771E+01
       N       E                     dE             d eps       ncg     rms          rms(c)
DAV:   1    -0.565481477342E+02   -0.48870E-01   -0.14703E+02   112   0.104E+02    0.490E+00
DAV:   2    -0.598698896518E+02   -0.33217E+01   -0.33651E+01   112   0.225E+01    0.143E+01
DAV:   3    -0.592373466326E+02    0.63254E+00   -0.25314E+01   168   0.122E+01    0.814E+00
DAV:   4    -0.580209467135E+02    0.12164E+01   -0.39620E+00   152   0.499E+00    0.282E+00
DAV:   5    -0.579752412574E+02    0.45705E-01   -0.12365E+00   160   0.235E+00    0.193E+00
DAV:   6    -0.579426281676E+02    0.32613E-01   -0.37883E-01   152   0.142E+00    0.126E+00
DAV:   7    -0.579700568259E+02   -0.27429E-01   -0.22955E-01   160   0.994E-01    0.141E+00
DAV:   8    -0.579508596449E+02    0.19197E-01   -0.32564E-01   160   0.621E-01    0.768E-01
DAV:   9    -0.579496305564E+02    0.12291E-02   -0.68921E-02   144   0.608E-01    0.395E-01
DAV:  10    -0.579495501026E+02    0.80454E-04   -0.17455E-02   144   0.424E-01    0.154E-01
DAV:  11    -0.579500068846E+02   -0.45678E-03   -0.31606E-03   152   0.185E-01    0.108E-01
DAV:  12    -0.579503436065E+02   -0.33672E-03   -0.49449E-04   104   0.810E-02    0.535E-02
DAV:  13    -0.579504270607E+02   -0.83454E-04   -0.25808E-04    80   0.536E-02
  11 F= -.57950427E+02 E0= -.57877645E+02  d E =-.145110E+01
       N       E                     dE             d eps       ncg     rms          rms(c)
DAV:   1    -0.567180845966E+02    0.12323E+01   -0.16933E+02   112   0.111E+02    0.534E+00
DAV:   2    -0.600741175522E+02   -0.33560E+01   -0.40950E+01   112   0.245E+01    0.101E+01
DAV:   3    -0.592617627916E+02    0.81235E+00   -0.15774E+01   168   0.119E+01    0.703E+00
DAV:   4    -0.583818096700E+02    0.87995E+00   -0.37006E+00   160   0.517E+00    0.225E+00
DAV:   5    -0.583566958079E+02    0.25114E-01   -0.12887E+00   152   0.257E+00    0.188E+00
DAV:   6    -0.583283572828E+02    0.28339E-01   -0.62365E-01   144   0.164E+00    0.122E+00
DAV:   7    -0.583453572902E+02   -0.17000E-01   -0.44371E-01   144   0.976E-01    0.120E+00
DAV:   8    -0.583235500713E+02    0.21807E-01   -0.12487E-01   152   0.638E-01    0.378E-01
DAV:   9    -0.583273664803E+02   -0.38164E-02   -0.24386E-02   144   0.369E-01    0.305E-01
DAV:  10    -0.583268735702E+02    0.49291E-03   -0.14420E-02   152   0.241E-01    0.167E-01
DAV:  11    -0.583271012010E+02   -0.22763E-03   -0.29973E-03   136   0.123E-01    0.112E-01
DAV:  12    -0.583273848820E+02   -0.28368E-03   -0.10959E-03   128   0.119E-01    0.515E-02
DAV:  13    -0.583275272385E+02   -0.14236E-03   -0.41863E-04   104   0.856E-02    0.219E-02
DAV:  14    -0.583276766820E+02   -0.14944E-03   -0.60735E-05    72   0.377E-02    0.140E-02
DAV:  15    -0.583278643925E+02   -0.18771E-03   -0.47583E-05    72   0.218E-02    0.101E-02
DAV:  16    -0.583280064955E+02   -0.14210E-03   -0.27674E-05    72   0.158E-02    0.729E-03
DAV:  17    -0.583281055096E+02   -0.99014E-04   -0.13610E-05    72   0.110E-02
  12 F= -.58328106E+02 E0= -.58259459E+02  d E =-.182878E+01
       N       E                     dE             d eps       ncg     rms          rms(c)
DAV:   1    -0.585378028419E+02   -0.20980E+00   -0.30780E+01   120   0.547E+01    0.164E+00
DAV:   2    -0.589685796599E+02   -0.43078E+00   -0.47703E+00    96   0.103E+01    0.172E+00
DAV:   3    -0.589773942103E+02   -0.88146E-02   -0.10578E+00   160   0.233E+00    0.174E+00
DAV:   4    -0.589364063320E+02    0.40988E-01   -0.29322E-01   160   0.113E+00    0.725E-01
DAV:   5    -0.589492640024E+02   -0.12858E-01   -0.17225E-01   144   0.100E+00    0.139E+00
DAV:   6    -0.589371927552E+02    0.12071E-01   -0.94253E-02   152   0.998E-01    0.450E-01
DAV:   7    -0.589404857170E+02   -0.32930E-02   -0.47672E-02   144   0.586E-01    0.450E-01
DAV:   8    -0.589382533739E+02    0.22323E-02   -0.22166E-02   152   0.288E-01    0.169E-01
DAV:   9    -0.589386209447E+02   -0.36757E-03   -0.59318E-03   136   0.243E-01    0.879E-02
DAV:  10    -0.589386472724E+02   -0.26328E-04   -0.14832E-03   128   0.131E-01    0.647E-02
DAV:  11    -0.589387068969E+02   -0.59624E-04   -0.29267E-04    72   0.549E-02
  13 F= -.58938707E+02 E0= -.58871607E+02  d E =-.610601E+00
       N       E                     dE             d eps       ncg     rms          rms(c)
DAV:   1    -0.566063219645E+02    0.23323E+01   -0.29811E+02   120   0.151E+02    0.582E+00
DAV:   2    -0.608063466578E+02   -0.42000E+01   -0.45984E+01    96   0.336E+01    0.585E+00
DAV:   3    -0.607733277506E+02    0.33019E-01   -0.12709E+01   144   0.834E+00    0.538E+00
DAV:   4    -0.602941177204E+02    0.47921E+00   -0.55209E+00   144   0.469E+00    0.209E+00
DAV:   5    -0.603233076361E+02   -0.29190E-01   -0.11900E+00   152   0.219E+00    0.227E+00
DAV:   6    -0.602725740174E+02    0.50734E-01   -0.60814E-01   160   0.133E+00    0.133E+00
DAV:   7    -0.603019037165E+02   -0.29330E-01   -0.47354E-01   152   0.175E+00    0.171E+00
DAV:   8    -0.602762889430E+02    0.25615E-01   -0.35767E-01   144   0.155E+00    0.728E-01
DAV:   9    -0.602746786548E+02    0.16103E-02   -0.87422E-02   144   0.970E-01    0.302E-01
DAV:  10    -0.602746891257E+02   -0.10471E-04   -0.24848E-02   144   0.406E-01    0.246E-01
DAV:  11    -0.602746510579E+02    0.38068E-04   -0.99146E-03   152   0.167E-01    0.149E-01
DAV:  12    -0.602748971422E+02   -0.24608E-03   -0.18848E-03   128   0.136E-01    0.809E-02
DAV:  13    -0.602752271202E+02   -0.32998E-03   -0.36903E-04    96   0.654E-02    0.323E-02
DAV:  14    -0.602755010971E+02   -0.27398E-03   -0.86221E-05    72   0.384E-02    0.125E-02
DAV:  15    -0.602757302626E+02   -0.22917E-03   -0.52370E-05    72   0.230E-02    0.668E-03
DAV:  16    -0.602759905456E+02   -0.26028E-03   -0.42947E-05    72   0.191E-02    0.626E-03
DAV:  17    -0.602762368489E+02   -0.24630E-03   -0.48551E-05    72   0.153E-02    0.478E-03
DAV:  18    -0.602763827083E+02   -0.14586E-03   -0.34758E-05    72   0.128E-02    0.294E-03
DAV:  19    -0.602764741920E+02   -0.91484E-04   -0.28837E-05    72   0.112E-02
  14 F= -.60276474E+02 E0= -.60211777E+02  d E =-.194837E+01
       N       E                     dE             d eps       ncg     rms          rms(c)
DAV:   1    -0.397227389834E+02    0.20554E+02   -0.12227E+03   120   0.293E+02    0.136E+01
DAV:   2    -0.652761749622E+02   -0.25553E+02   -0.27799E+02   112   0.742E+01    0.159E+01
DAV:   3    -0.608812082445E+02    0.43950E+01   -0.59250E+01   160   0.347E+01    0.937E+00
DAV:   4    -0.588588457428E+02    0.20224E+01   -0.99631E+00   144   0.939E+00    0.728E+00
DAV:   5    -0.586985316265E+02    0.16031E+00   -0.10850E+01   152   0.474E+00    0.578E+00
DAV:   6    -0.587130570132E+02   -0.14525E-01   -0.65006E+00   152   0.591E+00    0.544E+00
DAV:   7    -0.585901819170E+02    0.12288E+00   -0.74338E+00   160   0.526E+00    0.479E+00
DAV:   8    -0.583205719045E+02    0.26961E+00   -0.29311E+00   160   0.370E+00    0.149E+00
DAV:   9    -0.583879479313E+02   -0.67376E-01   -0.12940E+00   144   0.175E+00    0.262E+00
DAV:  10    -0.583049568860E+02    0.82991E-01   -0.96366E-01   152   0.910E-01    0.698E-01
DAV:  11    -0.583117128186E+02   -0.67559E-02   -0.12184E-01   144   0.970E-01    0.807E-01
DAV:  12    -0.583056105271E+02    0.61023E-02   -0.70964E-02   144   0.586E-01    0.266E-01
DAV:  13    -0.583072382643E+02   -0.16277E-02   -0.78183E-03   136   0.264E-01    0.715E-02
DAV:  14    -0.583083161748E+02   -0.10779E-02   -0.62193E-04   104   0.924E-02    0.435E-02
DAV:  15    -0.583091828477E+02   -0.86667E-03   -0.19027E-04    80   0.487E-02    0.278E-02
DAV:  16    -0.583102227120E+02   -0.10399E-02   -0.43794E-04    96   0.402E-02    0.295E-02
DAV:  17    -0.583110685618E+02   -0.84585E-03   -0.46189E-04    88   0.347E-02    0.333E-02
DAV:  18    -0.583115492686E+02   -0.48071E-03   -0.26550E-04    80   0.217E-02    0.142E-02
DAV:  19    -0.583119125526E+02   -0.36328E-03   -0.76443E-05    72   0.156E-02    0.540E-03
DAV:  20    -0.583121416360E+02   -0.22908E-03   -0.54926E-05    80   0.130E-02    0.403E-03
DAV:  21    -0.583122543226E+02   -0.11269E-03   -0.13632E-05    72   0.859E-03    0.235E-03
DAV:  22    -0.583123493025E+02   -0.94980E-04   -0.17057E-05    72   0.743E-03
  15 F= -.58312349E+02 E0= -.58228647E+02  d E =0.157562E-01
       N       E                     dE             d eps       ncg     rms          rms(c)
DAV:   1    -0.491638151444E+02    0.91484E+01   -0.79407E+02   128   0.245E+02    0.121E+01
DAV:   2    -0.728838373091E+02   -0.23720E+02   -0.19801E+02   128   0.658E+01    0.360E+01
DAV:   3    -0.618383371937E+02    0.11046E+02   -0.10704E+02   160   0.469E+01    0.103E+01
DAV:   4    -0.608146999251E+02    0.10236E+01   -0.13273E+01   160   0.118E+01    0.685E+00
DAV:   5    -0.608066114052E+02    0.80885E-02   -0.54989E+00   152   0.416E+00    0.632E+00
DAV:   6    -0.606937195751E+02    0.11289E+00   -0.56382E+00   152   0.417E+00    0.506E+00
DAV:   7    -0.605845845698E+02    0.10914E+00   -0.17468E+00   144   0.389E+00    0.386E+00
DAV:   8    -0.606646777918E+02   -0.80093E-01   -0.15668E+00   168   0.278E+00    0.374E+00
DAV:   9    -0.605492301370E+02    0.11545E+00   -0.82120E-01   144   0.235E+00    0.189E+00
DAV:  10    -0.605111361946E+02    0.38094E-01   -0.25850E-01   144   0.158E+00    0.927E-01
DAV:  11    -0.605087503807E+02    0.23858E-02   -0.89005E-02   144   0.674E-01    0.844E-01
DAV:  12    -0.605025220535E+02    0.62283E-02   -0.21123E-02   152   0.300E-01    0.527E-01
DAV:  13    -0.605017166734E+02    0.80538E-03   -0.82508E-03   144   0.286E-01    0.355E-01
DAV:  14    -0.605008437347E+02    0.87294E-03   -0.74601E-03   152   0.238E-01    0.127E-01
DAV:  15    -0.605014010857E+02   -0.55735E-03   -0.11909E-03   136   0.108E-01    0.514E-02
DAV:  16    -0.605017988379E+02   -0.39775E-03   -0.12214E-04    72   0.414E-02    0.373E-02
DAV:  17    -0.605023737982E+02   -0.57496E-03   -0.21220E-04    80   0.376E-02    0.114E-02
DAV:  18    -0.605026698278E+02   -0.29603E-03   -0.78983E-05    72   0.265E-02    0.118E-02
DAV:  19    -0.605030958650E+02   -0.42604E-03   -0.73609E-05    80   0.219E-02    0.149E-02
DAV:  20    -0.605034333902E+02   -0.33753E-03   -0.66235E-05    72   0.213E-02    0.529E-03
DAV:  21    -0.605035340703E+02   -0.10068E-03   -0.22483E-05    72   0.120E-02    0.317E-03
DAV:  22    -0.605036545244E+02   -0.12045E-03   -0.22406E-05    72   0.115E-02    0.308E-03
DAV:  23    -0.605037113727E+02   -0.56848E-04   -0.13402E-05    72   0.851E-03
  16 F= -.60503711E+02 E0= -.60438875E+02  d E =-.217561E+01
       N       E                     dE             d eps       ncg     rms          rms(c)
DAV:   1    -0.614881772364E+02   -0.98452E+00   -0.29587E+01    96   0.461E+01    0.265E+00
DAV:   2    -0.626841053267E+02   -0.11959E+01   -0.13047E+01   136   0.110E+01    0.720E+00
DAV:   3    -0.618260306706E+02    0.85807E+00   -0.65833E+00   152   0.645E+00    0.338E+00
DAV:   4    -0.616994559709E+02    0.12657E+00   -0.11822E+00   144   0.244E+00    0.116E+00
DAV:   5    -0.617047500028E+02   -0.52940E-02   -0.20354E-01   152   0.134E+00    0.103E+00
DAV:   6    -0.616985964479E+02    0.61536E-02   -0.14834E-01   136   0.124E+00    0.601E-01
DAV:   7    -0.617008167961E+02   -0.22203E-02   -0.65781E-02   144   0.772E-01    0.444E-01
DAV:   8    -0.616982401261E+02    0.25767E-02   -0.42747E-02   144   0.404E-01    0.183E-01
DAV:   9    -0.616982194465E+02    0.20680E-04   -0.71938E-03   152   0.187E-01    0.102E-01
DAV:  10    -0.616983351740E+02   -0.11573E-03   -0.20212E-03   120   0.109E-01    0.751E-02
DAV:  11    -0.616983435810E+02   -0.84071E-05   -0.11692E-03    88   0.795E-02    0.350E-02
DAV:  12    -0.616983913910E+02   -0.47810E-04   -0.17666E-04    72   0.489E-02
  17 F= -.61698391E+02 E0= -.61632326E+02  d E =-.119468E+01
       N       E                     dE             d eps       ncg     rms          rms(c)
DAV:   1    -0.620211211008E+02   -0.32278E+00   -0.11462E+02   104   0.888E+01    0.500E+00
DAV:   2    -0.672904490405E+02   -0.52693E+01   -0.43136E+01   136   0.220E+01    0.214E+01
DAV:   3    -0.639908695971E+02    0.32996E+01   -0.36040E+01   152   0.176E+01    0.675E+00
DAV:   4    -0.629233803287E+02    0.10675E+01   -0.40378E+00   144   0.603E+00    0.299E+00
DAV:   5    -0.629253140581E+02   -0.19337E-02   -0.11409E+00   144   0.222E+00    0.232E+00
DAV:   6    -0.628787793970E+02    0.46535E-01   -0.88222E-01   152   0.133E+00    0.185E+00
DAV:   7    -0.628843845771E+02   -0.56052E-02   -0.64641E-01   144   0.151E+00    0.159E+00
DAV:   8    -0.628599815520E+02    0.24403E-01   -0.46582E-01   152   0.138E+00    0.621E-01
DAV:   9    -0.628549871652E+02    0.49944E-02   -0.50901E-02   152   0.589E-01    0.265E-01
DAV:  10    -0.628553062652E+02   -0.31910E-03   -0.11781E-02   152   0.303E-01    0.152E-01
DAV:  11    -0.628561462308E+02   -0.83997E-03   -0.96429E-03   136   0.242E-01    0.182E-01
DAV:  12    -0.628559485408E+02    0.19769E-03   -0.52949E-03   128   0.149E-01    0.599E-02
DAV:  13    -0.628562101179E+02   -0.26158E-03   -0.78420E-04    96   0.616E-02    0.334E-02
DAV:  14    -0.628564606077E+02   -0.25049E-03   -0.10780E-04    72   0.334E-02    0.175E-02
DAV:  15    -0.628566925436E+02   -0.23194E-03   -0.53659E-05    72   0.218E-02    0.668E-03
DAV:  16    -0.628568944548E+02   -0.20191E-03   -0.30582E-05    72   0.146E-02    0.403E-03
DAV:  17    -0.628570527029E+02   -0.15825E-03   -0.21033E-05    72   0.104E-02    0.395E-03
DAV:  18    -0.628572219522E+02   -0.16925E-03   -0.34846E-05    72   0.118E-02    0.259E-03
DAV:  19    -0.628572761840E+02   -0.54232E-04   -0.16165E-05    72   0.808E-03
  18 F= -.62857276E+02 E0= -.62786893E+02  d E =-.235356E+01
       N       E                     dE             d eps       ncg     rms          rms(c)
DAV:   1    -0.628515917905E+02    0.56302E-02   -0.12956E+01   104   0.309E+01    0.170E+00
DAV:   2    -0.634324913811E+02   -0.58090E+00   -0.60158E+00   136   0.727E+00    0.585E+00
DAV:   3    -0.630328235017E+02    0.39967E+00   -0.39226E+00   144   0.435E+00    0.262E+00
DAV:   4    -0.629512210428E+02    0.81602E-01   -0.67979E-01   152   0.169E+00    0.729E-01
DAV:   5    -0.629529808429E+02   -0.17598E-02   -0.89597E-02   144   0.828E-01    0.595E-01
DAV:   6    -0.629509823696E+02    0.19985E-02   -0.55869E-02   144   0.734E-01    0.406E-01
DAV:   7    -0.629516784559E+02   -0.69609E-03   -0.26863E-02   144   0.470E-01    0.254E-01
DAV:   8    -0.629508989608E+02    0.77950E-03   -0.16027E-02   160   0.262E-01    0.156E-01
DAV:   9    -0.629507609159E+02    0.13804E-03   -0.38862E-03   136   0.144E-01    0.871E-02
DAV:  10    -0.629507462104E+02    0.14705E-04   -0.16018E-03   120   0.101E-01    0.559E-02
DAV:  11    -0.629507747691E+02   -0.28559E-04   -0.41887E-04    80   0.640E-02
  19 F= -.62950775E+02 E0= -.62877811E+02  d E =-.244706E+01
       N       E                     dE             d eps       ncg     rms          rms(c)
DAV:   1    -0.636513263729E+02   -0.70058E+00   -0.28358E+01    96   0.446E+01    0.225E+00
DAV:   2    -0.643495297654E+02   -0.69820E+00   -0.85946E+00   152   0.985E+00    0.549E+00
DAV:   3    -0.638817436133E+02    0.46779E+00   -0.43990E+00   144   0.329E+00    0.193E+00
DAV:   4    -0.638472172091E+02    0.34526E-01   -0.56119E-01   152   0.231E+00    0.108E+00
DAV:   5    -0.638465961649E+02    0.62104E-03   -0.25801E-01   136   0.913E-01    0.100E+00
DAV:   6    -0.638450994209E+02    0.14967E-02   -0.25242E-01   152   0.844E-01    0.993E-01
DAV:   7    -0.638483376565E+02   -0.32382E-02   -0.19545E-01   152   0.973E-01    0.101E+00
DAV:   8    -0.638386334636E+02    0.97042E-02   -0.10933E-01   144   0.766E-01    0.320E-01
DAV:   9    -0.638378470275E+02    0.78644E-03   -0.15877E-02   144   0.290E-01    0.102E-01
DAV:  10    -0.638381766653E+02   -0.32964E-03   -0.18357E-03   136   0.128E-01    0.693E-02
DAV:  11    -0.638382868159E+02   -0.11015E-03   -0.11609E-03   112   0.876E-02    0.610E-02
DAV:  12    -0.638383416376E+02   -0.54822E-04   -0.34238E-04    96   0.489E-02
  20 F= -.63838342E+02 E0= -.63760146E+02  d E =-.887567E+00
       N       E                     dE             d eps       ncg     rms          rms(c)
DAV:   1    -0.640108853600E+02   -0.17260E+00   -0.21681E+02   104   0.116E+02    0.732E+00
DAV:   2    -0.718348024037E+02   -0.78239E+01   -0.86636E+01   152   0.291E+01    0.141E+01
DAV:   3    -0.665744481631E+02    0.52604E+01   -0.25730E+01   144   0.153E+01    0.815E+00
DAV:   4    -0.649054241767E+02    0.16690E+01   -0.38011E+00   144   0.580E+00    0.354E+00
DAV:   5    -0.649335072971E+02   -0.28083E-01   -0.30888E+00   152   0.258E+00    0.375E+00
DAV:   6    -0.648149016989E+02    0.11861E+00   -0.20195E+00   152   0.190E+00    0.218E+00
DAV:   7    -0.648737156980E+02   -0.58814E-01   -0.16097E+00   144   0.183E+00    0.283E+00
DAV:   8    -0.648017980082E+02    0.71918E-01   -0.62256E-01   144   0.192E+00    0.136E+00
DAV:   9    -0.648202364658E+02   -0.18438E-01   -0.56403E-01   144   0.187E+00    0.179E+00
DAV:  10    -0.647897366637E+02    0.30500E-01   -0.34828E-01   152   0.905E-01    0.694E-01
DAV:  11    -0.647889105045E+02    0.82616E-03   -0.47373E-02   160   0.397E-01    0.339E-01
DAV:  12    -0.647884686049E+02    0.44190E-03   -0.13673E-02   144   0.232E-01    0.218E-01
DAV:  13    -0.647890338461E+02   -0.56524E-03   -0.46725E-03   128   0.124E-01    0.118E-01
DAV:  14    -0.647893085699E+02   -0.27472E-03   -0.99141E-04   112   0.712E-02    0.385E-02
DAV:  15    -0.647897582997E+02   -0.44973E-03   -0.13206E-04    64   0.439E-02    0.244E-02
DAV:  16    -0.647901186152E+02   -0.36032E-03   -0.18280E-04    48   0.243E-02    0.354E-02
DAV:  17    -0.647904622533E+02   -0.34364E-03   -0.18245E-04    56   0.218E-02    0.239E-02
DAV:  18    -0.647907057307E+02   -0.24348E-03   -0.62771E-05    48   0.144E-02    0.545E-03
DAV:  19    -0.647909497489E+02   -0.24402E-03   -0.39621E-05    56   0.125E-02    0.383E-03
DAV:  20    -0.647910685360E+02   -0.11879E-03   -0.24492E-05    48   0.963E-03    0.198E-03
DAV:  21    -0.647911472977E+02   -0.78762E-04   -0.19289E-05    48   0.783E-03
  21 F= -.64791147E+02 E0= -.64684156E+02  d E =-.184037E+01
       N       E                     dE             d eps       ncg     rms          rms(c)
DAV:   1    -0.648019138121E+02   -0.10845E-01   -0.10565E+01    96   0.267E+01    0.206E+00
DAV:   2    -0.661422285419E+02   -0.13403E+01   -0.11061E+01   144   0.659E+00    0.677E+00
DAV:   3    -0.648296156520E+02    0.13126E+01   -0.37182E+00   144   0.343E+00    0.141E+00
DAV:   4    -0.648409083668E+02   -0.11293E-01   -0.40902E-01   144   0.110E+00    0.131E+00
DAV:   5    -0.648256734863E+02    0.15235E-01   -0.15266E-01   144   0.711E-01    0.575E-01
DAV:   6    -0.648305881035E+02   -0.49146E-02   -0.59653E-02   152   0.752E-01    0.798E-01
DAV:   7    -0.648253083084E+02    0.52798E-02   -0.58381E-02   144   0.623E-01    0.402E-01
DAV:   8    -0.648250938439E+02    0.21446E-03   -0.25788E-02   160   0.322E-01    0.288E-01
DAV:   9    -0.648245780265E+02    0.51582E-03   -0.10474E-02   152   0.225E-01    0.154E-01
DAV:  10    -0.648246544715E+02   -0.76445E-04   -0.22300E-03   128   0.133E-01    0.920E-02
DAV:  11    -0.648246412821E+02    0.13189E-04   -0.76638E-04   112   0.787E-02
  22 F= -.64824641E+02 E0= -.64721301E+02  d E =-.187387E+01
       N       E                     dE             d eps       ncg     rms          rms(c)
DAV:   1    -0.658527475868E+02   -0.10281E+01   -0.42345E+01   104   0.478E+01    0.447E+00
DAV:   2    -0.712297755534E+02   -0.53770E+01   -0.59771E+01   144   0.121E+01    0.105E+01
DAV:   3    -0.670471067819E+02    0.41827E+01   -0.15570E+01   144   0.571E+00    0.710E+00
DAV:   4    -0.660027093516E+02    0.10444E+01   -0.37686E+00   136   0.289E+00    0.422E+00
DAV:   5    -0.658207000097E+02    0.18201E+00   -0.71526E-01   152   0.221E+00    0.226E+00
DAV:   6    -0.657684015528E+02    0.52298E-01   -0.52422E-01   152   0.151E+00    0.120E+00
DAV:   7    -0.657725531541E+02   -0.41516E-02   -0.24523E-01   136   0.996E-01    0.134E+00
DAV:   8    -0.657734361631E+02   -0.88301E-03   -0.37918E-01   152   0.839E-01    0.123E+00
DAV:   9    -0.657637176734E+02    0.97185E-02   -0.10965E-01   144   0.778E-01    0.688E-01
DAV:  10    -0.657600199599E+02    0.36977E-02   -0.35939E-02   144   0.428E-01    0.210E-01
DAV:  11    -0.657610983100E+02   -0.10784E-02   -0.11154E-02   144   0.190E-01    0.316E-01
DAV:  12    -0.657606537608E+02    0.44455E-03   -0.12782E-02   128   0.101E-01    0.151E-01
DAV:  13    -0.657606424485E+02    0.11312E-04   -0.14106E-03   104   0.697E-02    0.514E-02
DAV:  14    -0.657607129739E+02   -0.70525E-04   -0.18073E-04    72   0.503E-02
  23 F= -.65760713E+02 E0= -.65655597E+02  d E =-.936072E+00
       N       E                     dE             d eps       ncg     rms          rms(c)
DAV:   1    -0.662870914585E+02   -0.52645E+00   -0.39014E+01    96   0.453E+01    0.490E+00
DAV:   2    -0.726442052375E+02   -0.63571E+01   -0.70253E+01   152   0.128E+01    0.110E+01
DAV:   3    -0.675904642733E+02    0.50537E+01   -0.15440E+01   144   0.620E+00    0.739E+00
DAV:   4    -0.664293431552E+02    0.11611E+01   -0.40690E+00   136   0.301E+00    0.458E+00
DAV:   5    -0.661726183602E+02    0.25672E+00   -0.91059E-01   152   0.230E+00    0.292E+00
DAV:   6    -0.660840803869E+02    0.88538E-01   -0.43402E-01   152   0.131E+00    0.125E+00
DAV:   7    -0.660952802297E+02   -0.11200E-01   -0.16120E-01   136   0.852E-01    0.171E+00
DAV:   8    -0.660997775585E+02   -0.44973E-02   -0.73864E-01   144   0.800E-01    0.195E+00
DAV:   9    -0.660886252709E+02    0.11152E-01   -0.10435E-01   144   0.749E-01    0.156E+00
DAV:  10    -0.660791000958E+02    0.95252E-02   -0.35249E-02   152   0.465E-01    0.113E+00
DAV:  11    -0.660731562363E+02    0.59439E-02   -0.10472E-01   128   0.281E-01    0.422E-01
DAV:  12    -0.660740253543E+02   -0.86912E-03   -0.43123E-03   120   0.182E-01    0.374E-01
DAV:  13    -0.660730523353E+02    0.97302E-03   -0.33590E-03   120   0.932E-02    0.139E-01
DAV:  14    -0.660732229817E+02   -0.17065E-03   -0.19180E-03    96   0.582E-02    0.526E-02
DAV:  15    -0.660734997898E+02   -0.27681E-03   -0.56910E-04    72   0.366E-02    0.403E-02
DAV:  16    -0.660736306237E+02   -0.13083E-03   -0.18498E-04    72   0.194E-02    0.210E-02
DAV:  17    -0.660738572325E+02   -0.22661E-03   -0.73984E-05    72   0.159E-02    0.159E-02
DAV:  18    -0.660740156945E+02   -0.15846E-03   -0.30518E-05    72   0.101E-02    0.422E-03
DAV:  19    -0.660741717983E+02   -0.15610E-03   -0.20684E-05    64   0.887E-03    0.299E-03
DAV:  20    -0.660742563687E+02   -0.84570E-04   -0.15389E-05    48   0.712E-03
  24 F= -.66074256E+02 E0= -.65973476E+02  d E =-.124962E+01
       N       E                     dE             d eps       ncg     rms          rms(c)
DAV:   1    -0.665513756071E+02   -0.47720E+00   -0.43022E+01    96   0.571E+01    0.238E+00
DAV:   2    -0.676418451632E+02   -0.10905E+01   -0.12317E+01   120   0.112E+01    0.636E+00
DAV:   3    -0.669999027833E+02    0.64194E+00   -0.47505E+00   144   0.359E+00    0.343E+00
DAV:   4    -0.669394771423E+02    0.60426E-01   -0.17209E+00   144   0.222E+00    0.243E+00
DAV:   5    -0.668967248722E+02    0.42752E-01   -0.70999E-01   144   0.956E-01    0.129E+00
DAV:   6    -0.668902913282E+02    0.64335E-02   -0.19061E-01   136   0.138E+00    0.941E-01
DAV:   7    -0.668903282412E+02   -0.36913E-04   -0.17242E-01   152   0.103E+00    0.888E-01
DAV:   8    -0.668888334361E+02    0.14948E-02   -0.10826E-01   152   0.682E-01    0.659E-01
DAV:   9    -0.668845331794E+02    0.43003E-02   -0.48529E-02   152   0.624E-01    0.247E-01
DAV:  10    -0.668848600409E+02   -0.32686E-03   -0.69206E-03   136   0.238E-01    0.846E-02
DAV:  11    -0.668850693157E+02   -0.20927E-03   -0.13089E-03   120   0.107E-01    0.619E-02
DAV:  12    -0.668851752748E+02   -0.10596E-03   -0.31866E-04    72   0.545E-02    0.260E-02
DAV:  13    -0.668852821550E+02   -0.10688E-03   -0.11219E-04    72   0.314E-02    0.146E-02
DAV:  14    -0.668853793945E+02   -0.97239E-04   -0.38174E-05    56   0.219E-02
  25 F= -.66885379E+02 E0= -.66786338E+02  d E =-.811123E+00
       N       E                     dE             d eps       ncg     rms          rms(c)
DAV:   1    -0.656765736201E+02    0.12087E+01   -0.23448E+02   112   0.125E+02    0.521E+00
DAV:   2    -0.692543709057E+02   -0.35778E+01   -0.44210E+01   112   0.265E+01    0.767E+00
DAV:   3    -0.684656624730E+02    0.78871E+00   -0.15033E+01   160   0.726E+00    0.920E+00
DAV:   4    -0.679000889954E+02    0.56557E+00   -0.70003E+00   160   0.740E+00    0.381E+00
DAV:   5    -0.678269152075E+02    0.73174E-01   -0.22616E+00   128   0.276E+00    0.286E+00
DAV:   6    -0.677566893400E+02    0.70226E-01   -0.92137E-01   152   0.175E+00    0.158E+00
DAV:   7    -0.678179367267E+02   -0.61247E-01   -0.99414E-01   144   0.206E+00    0.246E+00
DAV:   8    -0.678033712523E+02    0.14565E-01   -0.14003E+00   144   0.919E-01    0.239E+00
DAV:   9    -0.677415941330E+02    0.61777E-01   -0.54398E-01   136   0.133E+00    0.407E-01
DAV:  10    -0.677459564746E+02   -0.43623E-02   -0.31177E-02   136   0.496E-01    0.218E-01
DAV:  11    -0.677465590635E+02   -0.60259E-03   -0.92320E-03   136   0.269E-01    0.138E-01
DAV:  12    -0.677472487499E+02   -0.68969E-03   -0.13573E-03   120   0.103E-01    0.795E-02
DAV:  13    -0.677476225287E+02   -0.37378E-03   -0.75287E-04    80   0.549E-02    0.420E-02
DAV:  14    -0.677481179460E+02   -0.49542E-03   -0.29030E-04    88   0.402E-02    0.190E-02
DAV:  15    -0.677484110155E+02   -0.29307E-03   -0.86795E-05    72   0.245E-02    0.154E-02
DAV:  16    -0.677487528805E+02   -0.34186E-03   -0.79732E-05    80   0.174E-02    0.103E-02
DAV:  17    -0.677491065377E+02   -0.35366E-03   -0.51682E-05    72   0.151E-02    0.476E-03
DAV:  18    -0.677493351713E+02   -0.22863E-03   -0.45872E-05    80   0.116E-02    0.447E-03
DAV:  19    -0.677494458341E+02   -0.11066E-03   -0.14473E-05    72   0.772E-03    0.156E-03
DAV:  20    -0.677495073810E+02   -0.61547E-04   -0.10107E-05    72   0.604E-03
  26 F= -.67749507E+02 E0= -.67656260E+02  d E =-.167525E+01
       N       E                     dE             d eps       ncg     rms          rms(c)
DAV:   1    -0.681517649274E+02   -0.40232E+00   -0.15525E+01   112   0.355E+01    0.144E+00
DAV:   2    -0.685847024789E+02   -0.43294E+00   -0.50966E+00   112   0.720E+00    0.470E+00
DAV:   3    -0.683027052218E+02    0.28200E+00   -0.25130E+00   144   0.303E+00    0.200E+00
DAV:   4    -0.682947292796E+02    0.79759E-02   -0.64548E-01   128   0.128E+00    0.147E+00
DAV:   5    -0.682835610158E+02    0.11168E-01   -0.27657E-01   136   0.790E-01    0.844E-01
DAV:   6    -0.682880215395E+02   -0.44605E-02   -0.16869E-01   144   0.498E-01    0.101E+00
DAV:   7    -0.682786677620E+02    0.93538E-02   -0.85471E-02   144   0.413E-01    0.294E-01
DAV:   8    -0.682805715924E+02   -0.19038E-02   -0.21581E-02   136   0.438E-01    0.295E-01
DAV:   9    -0.682796837578E+02    0.88783E-03   -0.12062E-02   144   0.344E-01    0.102E-01
DAV:  10    -0.682798056810E+02   -0.12192E-03   -0.16805E-03   128   0.133E-01    0.542E-02
DAV:  11    -0.682798973106E+02   -0.91630E-04   -0.23613E-04    72   0.583E-02
  27 F= -.68279897E+02 E0= -.68186887E+02  d E =-.530390E+00
       N       E                     dE             d eps       ncg     rms          rms(c)
DAV:   1    -0.683661673976E+02   -0.86362E-01   -0.14488E+02   112   0.102E+02    0.409E+00
DAV:   2    -0.707335764844E+02   -0.23674E+01   -0.28692E+01    96   0.218E+01    0.723E+00
DAV:   3    -0.698678917125E+02    0.86568E+00   -0.51474E+00   144   0.742E+00    0.479E+00
DAV:   4    -0.698037617287E+02    0.64130E-01   -0.39413E+00   136   0.449E+00    0.340E+00
DAV:   5    -0.697273290566E+02    0.76433E-01   -0.18903E+00   152   0.167E+00    0.237E+00
DAV:   6    -0.696794364886E+02    0.47893E-01   -0.46691E-01   136   0.160E+00    0.940E-01
DAV:   7    -0.697052817537E+02   -0.25845E-01   -0.32854E-01   144   0.137E+00    0.148E+00
DAV:   8    -0.696991843617E+02    0.60974E-02   -0.45381E-01   144   0.690E-01    0.146E+00
DAV:   9    -0.696813228616E+02    0.17862E-01   -0.19487E-01   144   0.723E-01    0.426E-01
DAV:  10    -0.696814644322E+02   -0.14157E-03   -0.23163E-02   136   0.405E-01    0.126E-01
DAV:  11    -0.696820818985E+02   -0.61747E-03   -0.16440E-03   128   0.144E-01    0.569E-02
DAV:  12    -0.696824525631E+02   -0.37066E-03   -0.35646E-04    88   0.684E-02    0.296E-02
DAV:  13    -0.696826428398E+02   -0.19028E-03   -0.23659E-04    72   0.392E-02    0.278E-02
DAV:  14    -0.696828696614E+02   -0.22682E-03   -0.66499E-05    72   0.303E-02    0.109E-02
DAV:  15    -0.696830667932E+02   -0.19713E-03   -0.42519E-05    72   0.167E-02    0.639E-03
DAV:  16    -0.696832723794E+02   -0.20559E-03   -0.33461E-05    72   0.144E-02    0.393E-03
DAV:  17    -0.696834119307E+02   -0.13955E-03   -0.29390E-05    72   0.117E-02    0.358E-03
DAV:  18    -0.696834798934E+02   -0.67963E-04   -0.15754E-05    72   0.915E-03
  28 F= -.69683480E+02 E0= -.69588273E+02  d E =-.193397E+01
       N       E                     dE             d eps       ncg     rms          rms(c)
DAV:   1    -0.640720894175E+02    0.56113E+01   -0.65384E+02   112   0.192E+02    0.921E+00
DAV:   2    -0.719931814503E+02   -0.79211E+01   -0.96113E+01    96   0.467E+01    0.946E+00
DAV:   3    -0.720146066625E+02   -0.21425E-01   -0.38850E+01   144   0.143E+01    0.830E+00
DAV:   4    -0.707522152255E+02    0.12624E+01   -0.83786E+00   144   0.880E+00    0.481E+00
DAV:   5    -0.706218615643E+02    0.13035E+00   -0.61403E+00   144   0.552E+00    0.436E+00
DAV:   6    -0.704465174486E+02    0.17534E+00   -0.35900E+00   136   0.253E+00    0.264E+00
DAV:   7    -0.703844689262E+02    0.62049E-01   -0.96832E-01   144   0.190E+00    0.165E+00
DAV:   8    -0.704307890592E+02   -0.46320E-01   -0.12183E+00   136   0.207E+00    0.226E+00
DAV:   9    -0.703706792082E+02    0.60110E-01   -0.62235E-01   144   0.180E+00    0.796E-01
DAV:  10    -0.703671445741E+02    0.35346E-02   -0.85110E-02   136   0.904E-01    0.275E-01
DAV:  11    -0.703677407413E+02   -0.59617E-03   -0.11021E-02   136   0.359E-01    0.167E-01
DAV:  12    -0.703681467087E+02   -0.40597E-03   -0.24841E-03   120   0.132E-01    0.710E-02
DAV:  13    -0.703686850633E+02   -0.53835E-03   -0.60747E-04   104   0.899E-02    0.391E-02
DAV:  14    -0.703691911120E+02   -0.50605E-03   -0.32924E-04    72   0.429E-02    0.232E-02
DAV:  15    -0.703698400641E+02   -0.64895E-03   -0.17501E-04    88   0.328E-02    0.148E-02
DAV:  16    -0.703701340489E+02   -0.29398E-03   -0.31352E-05    72   0.174E-02    0.953E-03
DAV:  17    -0.703706206038E+02   -0.48655E-03   -0.86474E-05    80   0.184E-02    0.569E-03
DAV:  18    -0.703708900551E+02   -0.26945E-03   -0.36137E-05    72   0.123E-02    0.370E-03
DAV:  19    -0.703710250523E+02   -0.13500E-03   -0.17429E-05    72   0.836E-03    0.205E-03
DAV:  20    -0.703711106587E+02   -0.85606E-04   -0.10907E-05    72   0.668E-03
  29 F= -.70371111E+02 E0= -.70276807E+02  d E =-.262160E+01
       N       E                     dE             d eps       ncg     rms          rms(c)
DAV:   1    -0.698121378445E+02    0.55889E+00   -0.13733E+02   112   0.973E+01    0.608E+00
DAV:   2    -0.790885858481E+02   -0.92764E+01   -0.66991E+01   152   0.266E+01    0.273E+01
DAV:   3    -0.715741429191E+02    0.75144E+01   -0.46467E+01   136   0.281E+01    0.656E+00
DAV:   4    -0.707680643019E+02    0.80608E+00   -0.78042E+00   144   0.582E+00    0.399E+00
DAV:   5    -0.706983242206E+02    0.69740E-01   -0.36514E+00   136   0.248E+00    0.321E+00
DAV:   6    -0.706071733936E+02    0.91151E-01   -0.10211E+00   136   0.224E+00    0.175E+00
DAV:   7    -0.706345412413E+02   -0.27368E-01   -0.66200E-01   136   0.219E+00    0.232E+00
DAV:   8    -0.706513952267E+02   -0.16854E-01   -0.13671E+00   152   0.101E+00    0.229E+00
DAV:   9    -0.705915858311E+02    0.59809E-01   -0.30148E-01   152   0.124E+00    0.535E-01
DAV:  10    -0.705937290366E+02   -0.21432E-02   -0.66090E-02   144   0.488E-01    0.382E-01
DAV:  11    -0.705928302868E+02    0.89875E-03   -0.58366E-03   128   0.186E-01    0.196E-01
DAV:  12    -0.705930617343E+02   -0.23145E-03   -0.21878E-03   120   0.133E-01    0.784E-02
DAV:  13    -0.705932070627E+02   -0.14533E-03   -0.25570E-04    80   0.756E-02    0.450E-02
DAV:  14    -0.705934093263E+02   -0.20226E-03   -0.22544E-04    80   0.469E-02    0.182E-02
DAV:  15    -0.705935728837E+02   -0.16356E-03   -0.65937E-05    72   0.284E-02    0.882E-03
DAV:  16    -0.705937750556E+02   -0.20217E-03   -0.41281E-05    72   0.202E-02    0.683E-03
DAV:  17    -0.705939086251E+02   -0.13357E-03   -0.21123E-05    72   0.141E-02    0.552E-03
DAV:  18    -0.705940706399E+02   -0.16201E-03   -0.27974E-05    72   0.118E-02    0.431E-03
DAV:  19    -0.705941376798E+02   -0.67040E-04   -0.15405E-05    72   0.932E-03
  30 F= -.70594138E+02 E0= -.70495505E+02  d E =-.284463E+01
       N       E                     dE             d eps       ncg     rms          rms(c)
DAV:   1    -0.705818808684E+02    0.12190E-01   -0.97325E+00   104   0.269E+01    0.168E+00
DAV:   2    -0.713018018254E+02   -0.71992E+00   -0.76408E+00   152   0.762E+00    0.619E+00
DAV:   3    -0.707368828986E+02    0.56492E+00   -0.49859E+00   144   0.461E+00    0.300E+00
DAV:   4    -0.706445677969E+02    0.92315E-01   -0.82602E-01   136   0.129E+00    0.632E-01
DAV:   5    -0.706533770734E+02   -0.88093E-02   -0.61182E-02   136   0.677E-01    0.793E-01
DAV:   6    -0.706501978580E+02    0.31792E-02   -0.74096E-02   152   0.358E-01    0.550E-01
DAV:   7    -0.706513890648E+02   -0.11912E-02   -0.39893E-02   136   0.545E-01    0.398E-01
DAV:   8    -0.706497778290E+02    0.16112E-02   -0.15630E-02   136   0.532E-01    0.131E-01
DAV:   9    -0.706497331498E+02    0.44679E-04   -0.26796E-03   136   0.172E-01    0.548E-02
DAV:  10    -0.706497971991E+02   -0.64049E-04   -0.24234E-04    80   0.629E-02
  31 F= -.70649797E+02 E0= -.70550945E+02  d E =-.290029E+01
       N       E                     dE             d eps       ncg     rms          rms(c)
DAV:   1    -0.714076628582E+02   -0.75793E+00   -0.35591E+01   104   0.513E+01    0.303E+00
DAV:   2    -0.729980575802E+02   -0.15904E+01   -0.17268E+01   144   0.145E+01    0.826E+00
DAV:   3    -0.719040658331E+02    0.10940E+01   -0.11682E+01   136   0.635E+00    0.419E+00
DAV:   4    -0.716630773859E+02    0.24099E+00   -0.22457E+00   152   0.257E+00    0.152E+00
DAV:   5    -0.716972423902E+02   -0.34165E-01   -0.62887E-01   144   0.148E+00    0.212E+00
DAV:   6    -0.716554382155E+02    0.41804E-01   -0.51668E-01   136   0.753E-01    0.126E+00
DAV:   7    -0.716491322554E+02    0.63060E-02   -0.15784E-01   144   0.100E+00    0.662E-01
DAV:   8    -0.716479105893E+02    0.12217E-02   -0.45398E-02   136   0.915E-01    0.315E-01
DAV:   9    -0.716469694073E+02    0.94118E-03   -0.11630E-02   136   0.388E-01    0.105E-01
DAV:  10    -0.716471934445E+02   -0.22404E-03   -0.12043E-03   128   0.136E-01    0.653E-02
DAV:  11    -0.716473167939E+02   -0.12335E-03   -0.48378E-04   104   0.926E-02    0.428E-02
DAV:  12    -0.716473587954E+02   -0.42001E-04   -0.20304E-04    80   0.622E-02
  32 F= -.71647359E+02 E0= -.71550770E+02  d E =-.997562E+00
       N       E                     dE             d eps       ncg     rms          rms(c)
DAV:   1    -0.717059718909E+02   -0.58655E-01   -0.87829E+01   104   0.788E+01    0.448E+00
DAV:   2    -0.744883210727E+02   -0.27823E+01   -0.29762E+01   128   0.215E+01    0.104E+01
DAV:   3    -0.726943686063E+02    0.17940E+01   -0.20730E+01   144   0.860E+00    0.518E+00
DAV:   4    -0.723361529027E+02    0.35822E+00   -0.40623E+00   144   0.399E+00    0.288E+00
DAV:   5    -0.724230475604E+02   -0.86895E-01   -0.28268E+00   136   0.203E+00    0.353E+00
DAV:   6    -0.722694405255E+02    0.15361E+00   -0.12128E+00   144   0.136E+00    0.152E+00
DAV:   7    -0.722604600622E+02    0.89805E-02   -0.33867E-01   144   0.156E+00    0.108E+00
DAV:   8    -0.722558766735E+02    0.45834E-02   -0.15050E-01   136   0.160E+00    0.663E-01
DAV:   9    -0.722508754169E+02    0.50013E-02   -0.43202E-02   128   0.846E-01    0.207E-01
DAV:  10    -0.722511273783E+02   -0.25196E-03   -0.56897E-03   144   0.311E-01    0.110E-01
DAV:  11    -0.722513622153E+02   -0.23484E-03   -0.99582E-04   120   0.125E-01    0.683E-02
DAV:  12    -0.722515338420E+02   -0.17163E-03   -0.34298E-04    72   0.569E-02    0.298E-02
DAV:  13    -0.722516941445E+02   -0.16030E-03   -0.76219E-05    72   0.424E-02    0.177E-02
DAV:  14    -0.722518583685E+02   -0.16422E-03   -0.50204E-05    72   0.222E-02    0.937E-03
DAV:  15    -0.722520246784E+02   -0.16631E-03   -0.22137E-05    56   0.143E-02    0.529E-03
DAV:  16    -0.722522256990E+02   -0.20102E-03   -0.25106E-05    72   0.126E-02    0.319E-03
DAV:  17    -0.722523429532E+02   -0.11725E-03   -0.16940E-05    56   0.955E-03    0.181E-03
DAV:  18    -0.722524249217E+02   -0.81968E-04   -0.13888E-05    48   0.809E-03
  33 F= -.72252425E+02 E0= -.72166880E+02  d E =-.160263E+01
       N       E                     dE             d eps       ncg     rms          rms(c)
DAV:   1    -0.728034978417E+02   -0.55115E+00   -0.14491E+01   112   0.352E+01    0.183E+00
DAV:   2    -0.737418896041E+02   -0.93839E+00   -0.10248E+01   136   0.766E+00    0.611E+00
DAV:   3    -0.729522352931E+02    0.78965E+00   -0.20608E+00   136   0.345E+00    0.179E+00
DAV:   4    -0.729592216489E+02   -0.69864E-02   -0.67086E-01   128   0.118E+00    0.162E+00
DAV:   5    -0.729462133368E+02    0.13008E-01   -0.36159E-01   152   0.121E+00    0.970E-01
DAV:   6    -0.729386651174E+02    0.75482E-02   -0.95162E-02   136   0.105E+00    0.461E-01
DAV:   7    -0.729459736690E+02   -0.73086E-02   -0.83755E-02   144   0.747E-01    0.848E-01
DAV:   8    -0.729378884302E+02    0.80852E-02   -0.63356E-02   144   0.613E-01    0.156E-01
DAV:   9    -0.729383536217E+02   -0.46519E-03   -0.50253E-03   136   0.188E-01    0.666E-02
DAV:  10    -0.729383832746E+02   -0.29653E-04   -0.48717E-04    72   0.692E-02
  34 F= -.72938383E+02 E0= -.72854024E+02  d E =-.685958E+00
       N       E                     dE             d eps       ncg     rms          rms(c)
DAV:   1    -0.726716087954E+02    0.26674E+00   -0.13105E+02   104   0.101E+02    0.530E+00
DAV:   2    -0.784118009133E+02   -0.57402E+01   -0.63576E+01   136   0.244E+01    0.143E+01
DAV:   3    -0.747140645863E+02    0.36977E+01   -0.14136E+01   136   0.169E+01    0.632E+00
DAV:   4    -0.739963435110E+02    0.71772E+00   -0.25982E+00   128   0.441E+00    0.310E+00
DAV:   5    -0.740555358799E+02   -0.59192E-01   -0.24152E+00   136   0.177E+00    0.406E+00
DAV:   6    -0.739407078254E+02    0.11483E+00   -0.26741E+00   152   0.149E+00    0.211E+00
DAV:   7    -0.739084549696E+02    0.32253E-01   -0.44683E-01   152   0.145E+00    0.119E+00
DAV:   8    -0.739303360377E+02   -0.21881E-01   -0.49388E-01   144   0.214E+00    0.182E+00
DAV:   9    -0.738978075449E+02    0.32528E-01   -0.29912E-01   136   0.136E+00    0.518E-01
DAV:  10    -0.738995072273E+02   -0.16997E-02   -0.37691E-02   128   0.358E-01    0.340E-01
DAV:  11    -0.738991536892E+02    0.35354E-03   -0.10633E-02   136   0.129E-01    0.142E-01
DAV:  12    -0.738993681630E+02   -0.21447E-03   -0.11479E-03    88   0.619E-02    0.551E-02
DAV:  13    -0.738996371362E+02   -0.26897E-03   -0.11393E-04    72   0.558E-02    0.334E-02
DAV:  14    -0.738998336075E+02   -0.19647E-03   -0.12626E-04    72   0.287E-02    0.112E-02
DAV:  15    -0.739000766206E+02   -0.24301E-03   -0.49339E-05    72   0.214E-02    0.122E-02
DAV:  16    -0.739003334700E+02   -0.25685E-03   -0.46889E-05    72   0.161E-02    0.625E-03
DAV:  17    -0.739004898290E+02   -0.15636E-03   -0.27619E-05    72   0.115E-02    0.577E-03
DAV:  18    -0.739006015498E+02   -0.11172E-03   -0.23734E-05    72   0.982E-03    0.405E-03
DAV:  19    -0.739006443132E+02   -0.42763E-04   -0.97906E-06    72   0.686E-03
  35 F= -.73900644E+02 E0= -.73817951E+02  d E =-.164822E+01
       N       E                     dE             d eps       ncg     rms          rms(c)
DAV:   1    -0.744229781243E+02   -0.52238E+00   -0.23009E+01   104   0.407E+01    0.236E+00
DAV:   2    -0.758031250102E+02   -0.13801E+01   -0.15650E+01   136   0.904E+00    0.611E+00
DAV:   3    -0.746042782817E+02    0.11988E+01   -0.24480E+00   136   0.341E+00    0.230E+00
DAV:   4    -0.745840632590E+02    0.20215E-01   -0.30345E-01   120   0.107E+00    0.109E+00
DAV:   5    -0.746023303005E+02   -0.18267E-01   -0.33027E-01   152   0.145E+00    0.182E+00
DAV:   6    -0.745803471484E+02    0.21983E-01   -0.17102E-01   144   0.894E-01    0.945E-01
DAV:   7    -0.745779759234E+02    0.23712E-02   -0.12552E-01   152   0.757E-01    0.598E-01
DAV:   8    -0.745771952041E+02    0.78072E-03   -0.67858E-02   144   0.634E-01    0.452E-01
DAV:   9    -0.745748943062E+02    0.23009E-02   -0.19748E-02   144   0.432E-01    0.107E-01
DAV:  10    -0.745752001180E+02   -0.30581E-03   -0.22176E-03   128   0.132E-01    0.130E-01
DAV:  11    -0.745752056595E+02   -0.55415E-05   -0.13249E-03    80   0.531E-02    0.422E-02
DAV:  12    -0.745752569017E+02   -0.51242E-04   -0.68282E-05    72   0.331E-02
  36 F= -.74575257E+02 E0= -.74492065E+02  d E =-.674613E+00
       N       E                     dE             d eps       ncg     rms          rms(c)
DAV:   1    -0.744034828864E+02    0.17172E+00   -0.99233E+01   104   0.831E+01    0.394E+00
DAV:   2    -0.772104668702E+02   -0.28070E+01   -0.33243E+01   136   0.188E+01    0.894E+00
DAV:   3    -0.755734438426E+02    0.16370E+01   -0.10139E+01   152   0.883E+00    0.475E+00
DAV:   4    -0.752064864299E+02    0.36696E+00   -0.13485E+00   136   0.383E+00    0.191E+00
DAV:   5    -0.751912378167E+02    0.15249E-01   -0.34461E-01   128   0.140E+00    0.153E+00
DAV:   6    -0.752055786198E+02   -0.14341E-01   -0.57837E-01   160   0.148E+00    0.167E+00
DAV:   7    -0.751729163459E+02    0.32662E-01   -0.34202E-01   144   0.154E+00    0.772E-01
DAV:   8    -0.751711009867E+02    0.18154E-02   -0.75666E-02   136   0.974E-01    0.380E-01
DAV:   9    -0.751698527136E+02    0.12483E-02   -0.22387E-02   136   0.524E-01    0.249E-01
DAV:  10    -0.751703242378E+02   -0.47152E-03   -0.13622E-02   128   0.182E-01    0.286E-01
DAV:  11    -0.751706267816E+02   -0.30254E-03   -0.15187E-02   112   0.118E-01    0.217E-01
DAV:  12    -0.751703789304E+02    0.24785E-03   -0.20573E-03    80   0.722E-02    0.569E-02
DAV:  13    -0.751706324573E+02   -0.25353E-03   -0.29346E-04    72   0.354E-02    0.131E-02
DAV:  14    -0.751708860487E+02   -0.25359E-03   -0.44708E-05    72   0.237E-02    0.860E-03
DAV:  15    -0.751711322767E+02   -0.24623E-03   -0.35176E-05    72   0.158E-02    0.672E-03
DAV:  16    -0.751714171891E+02   -0.28491E-03   -0.53171E-05    80   0.137E-02    0.360E-03
DAV:  17    -0.751715825002E+02   -0.16531E-03   -0.20496E-05    72   0.892E-03    0.305E-03
DAV:  18    -0.751716613932E+02   -0.78893E-04   -0.13001E-05    72   0.754E-03
  37 F= -.75171661E+02 E0= -.75092216E+02  d E =-.127102E+01
       N       E                     dE             d eps       ncg     rms          rms(c)
DAV:   1    -0.757218534068E+02   -0.55027E+00   -0.11904E+01    96   0.241E+01    0.101E+00
DAV:   2    -0.758851425707E+02   -0.16329E+00   -0.17179E+00   120   0.474E+00    0.250E+00
DAV:   3    -0.757789958180E+02    0.10615E+00   -0.59484E-01   152   0.126E+00    0.107E+00
DAV:   4    -0.757852347592E+02   -0.62389E-02   -0.21792E-01   136   0.128E+00    0.112E+00
DAV:   5    -0.757749215529E+02    0.10313E-01   -0.11427E-01   136   0.708E-01    0.508E-01
DAV:   6    -0.757731692526E+02    0.17523E-02   -0.54115E-02   144   0.425E-01    0.321E-01
DAV:   7    -0.757725289543E+02    0.64030E-03   -0.14814E-02   144   0.255E-01    0.184E-01
DAV:   8    -0.757723630613E+02    0.16589E-03   -0.42032E-03   136   0.253E-01    0.924E-02
DAV:   9    -0.757723530663E+02    0.99949E-05   -0.80165E-04   104   0.102E-01
  38 F= -.75772353E+02 E0= -.75693530E+02  d E =-.600692E+00
       N       E                     dE             d eps       ncg     rms          rms(c)
DAV:   1    -0.764522395056E+02   -0.67988E+00   -0.10727E+02    96   0.718E+01    0.282E+00
DAV:   2    -0.773591805239E+02   -0.90694E+00   -0.11778E+01   112   0.144E+01    0.438E+00
DAV:   3    -0.770416525785E+02    0.31753E+00   -0.37592E+00   144   0.411E+00    0.261E+00
DAV:   4    -0.770905380337E+02   -0.48885E-01   -0.19412E+00   128   0.234E+00    0.386E+00
DAV:   5    -0.769849642238E+02    0.10557E+00   -0.16786E+00   144   0.255E+00    0.184E+00
DAV:   6    -0.769664559173E+02    0.18508E-01   -0.23408E-01   128   0.167E+00    0.949E-01
DAV:   7    -0.769584937753E+02    0.79621E-02   -0.13390E-01   144   0.138E+00    0.548E-01
DAV:   8    -0.769577314425E+02    0.76233E-03   -0.51442E-02   136   0.858E-01    0.375E-01
DAV:   9    -0.769560213792E+02    0.17101E-02   -0.13360E-02   136   0.368E-01    0.975E-02
DAV:  10    -0.769565084626E+02   -0.48708E-03   -0.18323E-03   120   0.121E-01    0.656E-02
DAV:  11    -0.769566372112E+02   -0.12875E-03   -0.39001E-04    72   0.660E-02    0.355E-02
DAV:  12    -0.769567893927E+02   -0.15218E-03   -0.74413E-05    72   0.366E-02    0.203E-02
DAV:  13    -0.769569985451E+02   -0.20915E-03   -0.53811E-05    72   0.253E-02    0.106E-02
DAV:  14    -0.769572171479E+02   -0.21860E-03   -0.31137E-05    72   0.188E-02    0.515E-03
DAV:  15    -0.769573668371E+02   -0.14969E-03   -0.19724E-05    72   0.116E-02    0.556E-03
DAV:  16    -0.769575688961E+02   -0.20206E-03   -0.29883E-05    64   0.113E-02    0.357E-03
DAV:  17    -0.769576581570E+02   -0.89261E-04   -0.17071E-05    64   0.907E-03
  39 F= -.76957658E+02 E0= -.76880769E+02  d E =-.178600E+01
       N       E                     dE             d eps       ncg     rms          rms(c)
DAV:   1    -0.726409646091E+02    0.43166E+01   -0.43081E+02   104   0.140E+02    0.674E+00
DAV:   2    -0.768756663180E+02   -0.42347E+01   -0.55789E+01   144   0.303E+01    0.129E+01
DAV:   3    -0.755678661011E+02    0.13078E+01   -0.24443E+01   144   0.139E+01    0.705E+00
DAV:   4    -0.748870528671E+02    0.68081E+00   -0.42318E+00   144   0.561E+00    0.442E+00
DAV:   5    -0.748026022450E+02    0.84451E-01   -0.67475E+00   152   0.429E+00    0.402E+00
DAV:   6    -0.746720100933E+02    0.13059E+00   -0.17914E+00   136   0.478E+00    0.238E+00
DAV:   7    -0.745791922999E+02    0.92818E-01   -0.86804E-01   136   0.291E+00    0.116E+00
DAV:   8    -0.745784141796E+02    0.77812E-03   -0.17960E-01   128   0.103E+00    0.649E-01
DAV:   9    -0.745750884880E+02    0.33257E-02   -0.91188E-02   144   0.660E-01    0.392E-01
DAV:  10    -0.745755371386E+02   -0.44865E-03   -0.12760E-02   136   0.342E-01    0.164E-01
DAV:  11    -0.745760488298E+02   -0.51169E-03   -0.36115E-03   120   0.172E-01    0.992E-02
DAV:  12    -0.745764368767E+02   -0.38805E-03   -0.14425E-03   112   0.892E-02    0.443E-02
DAV:  13    -0.745768686959E+02   -0.43182E-03   -0.16650E-04    72   0.483E-02    0.199E-02
DAV:  14    -0.745773633495E+02   -0.49465E-03   -0.87031E-05    80   0.279E-02    0.114E-02
DAV:  15    -0.745777774610E+02   -0.41411E-03   -0.39358E-05    72   0.184E-02    0.710E-03
DAV:  16    -0.745782226070E+02   -0.44515E-03   -0.60185E-05    80   0.165E-02    0.453E-03
DAV:  17    -0.745784959495E+02   -0.27334E-03   -0.26675E-05    72   0.113E-02    0.422E-03
DAV:  18    -0.745786744220E+02   -0.17847E-03   -0.24932E-05    72   0.966E-03    0.284E-03
DAV:  19    -0.745787709487E+02   -0.96527E-04   -0.12914E-05    72   0.793E-03
  40 F= -.74578771E+02 E0= -.74492662E+02  d E =0.592890E+00
       N       E                     dE             d eps       ncg     rms          rms(c)
DAV:   1    -0.761638752126E+02   -0.15852E+01   -0.33664E+02    96   0.123E+02    0.562E+00
DAV:   2    -0.781552031428E+02   -0.19913E+01   -0.32256E+01   120   0.233E+01    0.628E+00
DAV:   3    -0.775719758662E+02    0.58323E+00   -0.98380E+00   136   0.714E+00    0.515E+00
DAV:   4    -0.773027559217E+02    0.26922E+00   -0.32190E+00   136   0.643E+00    0.500E+00
DAV:   5    -0.772320288651E+02    0.70727E-01   -0.33892E+00   144   0.462E+00    0.354E+00
DAV:   6    -0.771612117045E+02    0.70817E-01   -0.37008E+00   144   0.179E+00    0.205E+00
DAV:   7    -0.770936662268E+02    0.67545E-01   -0.46339E-01   144   0.167E+00    0.888E-01
DAV:   8    -0.770889538331E+02    0.47124E-02   -0.12585E-01   136   0.125E+00    0.748E-01
DAV:   9    -0.770827233364E+02    0.62305E-02   -0.42906E-02   136   0.816E-01    0.436E-01
DAV:  10    -0.770820537939E+02    0.66954E-03   -0.10741E-02   136   0.253E-01    0.288E-01
DAV:  11    -0.770822242925E+02   -0.17050E-03   -0.96105E-03   136   0.202E-01    0.148E-01
DAV:  12    -0.770825869303E+02   -0.36264E-03   -0.36571E-03   112   0.104E-01    0.922E-02
DAV:  13    -0.770829693354E+02   -0.38241E-03   -0.57341E-04    72   0.527E-02    0.247E-02
DAV:  14    -0.770836675450E+02   -0.69821E-03   -0.17135E-04    88   0.371E-02    0.183E-02
DAV:  15    -0.770841300980E+02   -0.46255E-03   -0.68724E-05    72   0.248E-02    0.770E-03
DAV:  16    -0.770845961680E+02   -0.46607E-03   -0.11014E-04    80   0.196E-02    0.550E-03
DAV:  17    -0.770849008177E+02   -0.30465E-03   -0.50939E-05    72   0.142E-02    0.270E-03
DAV:  18    -0.770850361019E+02   -0.13528E-03   -0.27910E-05    72   0.963E-03    0.199E-03
DAV:  19    -0.770851335474E+02   -0.97446E-04   -0.17387E-05    72   0.802E-03
  41 F= -.77085134E+02 E0= -.77008090E+02  d E =-.191347E+01
       N       E                     dE             d eps       ncg     rms          rms(c)
DAV:   1    -0.776466045958E+02   -0.56157E+00   -0.18827E+01   104   0.361E+01    0.152E+00
DAV:   2    -0.778928462447E+02   -0.24624E+00   -0.29585E+00   128   0.729E+00    0.299E+00
DAV:   3    -0.777880808484E+02    0.10477E+00   -0.16900E+00   144   0.298E+00    0.137E+00
DAV:   4    -0.777873935783E+02    0.68727E-03   -0.32752E-01   144   0.158E+00    0.125E+00
DAV:   5    -0.777860726730E+02    0.13209E-02   -0.36828E-01   152   0.966E-01    0.154E+00
DAV:   6    -0.777691610007E+02    0.16912E-01   -0.20190E-01   136   0.856E-01    0.445E-01
DAV:   7    -0.777696046733E+02   -0.44367E-03   -0.29229E-02   136   0.562E-01    0.235E-01
DAV:   8    -0.777694231622E+02    0.18151E-03   -0.74994E-03   136   0.215E-01    0.117E-01
DAV:   9    -0.777694497923E+02   -0.26630E-04   -0.15932E-03   120   0.149E-01    0.591E-02
DAV:  10    -0.777694530544E+02   -0.32621E-05   -0.30003E-04    80   0.620E-02
  42 F= -.77769453E+02 E0= -.77689441E+02  d E =-.684320E+00
       N       E                     dE             d eps       ncg     rms          rms(c)
DAV:   1    -0.777273772911E+02    0.42073E-01   -0.13619E+02   104   0.934E+01    0.423E+00
DAV:   2    -0.793145066587E+02   -0.15871E+01   -0.19627E+01   136   0.196E+01    0.668E+00
DAV:   3    -0.787137486328E+02    0.60076E+00   -0.80633E+00   144   0.823E+00    0.334E+00
DAV:   4    -0.786488624582E+02    0.64886E-01   -0.21143E+00   144   0.337E+00    0.237E+00
DAV:   5    -0.786252562838E+02    0.23606E-01   -0.11777E+00   144   0.280E+00    0.248E+00
DAV:   6    -0.786214755043E+02    0.37808E-02   -0.11518E+00   144   0.153E+00    0.179E+00
DAV:   7    -0.785769599583E+02    0.44516E-01   -0.41834E-01   144   0.147E+00    0.746E-01
DAV:   8    -0.785777261756E+02   -0.76622E-03   -0.69667E-02   144   0.720E-01    0.399E-01
DAV:   9    -0.785757576230E+02    0.19686E-02   -0.18142E-02   136   0.491E-01    0.141E-01
DAV:  10    -0.785761682914E+02   -0.41067E-03   -0.24371E-03   112   0.150E-01    0.521E-02
DAV:  11    -0.785765065359E+02   -0.33824E-03   -0.24102E-04    88   0.619E-02    0.308E-02
DAV:  12    -0.785769093763E+02   -0.40284E-03   -0.10138E-04    80   0.355E-02    0.130E-02
DAV:  13    -0.785772151718E+02   -0.30580E-03   -0.41193E-05    72   0.213E-02    0.974E-03
DAV:  14    -0.785774983340E+02   -0.28316E-03   -0.32523E-05    80   0.145E-02    0.571E-03
DAV:  15    -0.785778886699E+02   -0.39034E-03   -0.43383E-05    80   0.133E-02    0.401E-03
DAV:  16    -0.785781426495E+02   -0.25398E-03   -0.28605E-05    72   0.107E-02    0.272E-03
DAV:  17    -0.785782701750E+02   -0.12753E-03   -0.17630E-05    72   0.818E-03    0.147E-03
DAV:  18    -0.785783358704E+02   -0.65695E-04   -0.96666E-06    72   0.611E-03
  43 F= -.78578336E+02 E0= -.78497159E+02  d E =-.149320E+01
       N       E                     dE             d eps       ncg     rms          rms(c)
DAV:   1    -0.789936851564E+02   -0.41541E+00   -0.49206E+01   104   0.585E+01    0.268E+00
DAV:   2    -0.796323130680E+02   -0.63863E+00   -0.83277E+00   120   0.117E+01    0.455E+00
DAV:   3    -0.793404343750E+02    0.29188E+00   -0.46921E+00   152   0.492E+00    0.201E+00
DAV:   4    -0.793020988498E+02    0.38336E-01   -0.74878E-01   144   0.199E+00    0.147E+00
DAV:   5    -0.793006180740E+02    0.14808E-02   -0.60550E-01   144   0.158E+00    0.135E+00
DAV:   6    -0.792877092611E+02    0.12909E-01   -0.34944E-01   144   0.130E+00    0.110E+00
DAV:   7    -0.792781142691E+02    0.95950E-02   -0.99059E-02   144   0.106E+00    0.466E-01
DAV:   8    -0.792771685818E+02    0.94569E-03   -0.17300E-02   136   0.659E-01    0.202E-01
DAV:   9    -0.792767124646E+02    0.45612E-03   -0.80177E-03   136   0.255E-01    0.958E-02
DAV:  10    -0.792768655016E+02   -0.15304E-03   -0.99923E-04   120   0.108E-01    0.476E-02
DAV:  11    -0.792770153237E+02   -0.14982E-03   -0.21178E-04    72   0.530E-02    0.173E-02
DAV:  12    -0.792771576990E+02   -0.14238E-03   -0.46624E-05    72   0.250E-02    0.757E-03
DAV:  13    -0.792772811374E+02   -0.12344E-03   -0.18873E-05    72   0.160E-02    0.421E-03
DAV:  14    -0.792774382938E+02   -0.15716E-03   -0.20993E-05    72   0.113E-02    0.255E-03
DAV:  15    -0.792775687492E+02   -0.13046E-03   -0.20993E-05    72   0.981E-03    0.250E-03
DAV:  16    -0.792776368737E+02   -0.68125E-04   -0.11204E-05    72   0.817E-03
  44 F= -.79277637E+02 E0= -.79206729E+02  d E =-.699301E+00
       N       E                     dE             d eps       ncg     rms          rms(c)
DAV:   1    -0.792927219296E+02   -0.15153E-01   -0.15036E+01   104   0.327E+01    0.148E+00
DAV:   2    -0.794921937916E+02   -0.19947E+00   -0.25793E+00   136   0.650E+00    0.260E+00
DAV:   3    -0.793960452914E+02    0.96149E-01   -0.13542E+00   144   0.279E+00    0.108E+00
DAV:   4    -0.793921575229E+02    0.38878E-02   -0.24659E-01   136   0.109E+00    0.952E-01
DAV:   5    -0.793861693126E+02    0.59882E-02   -0.18172E-01   144   0.898E-01    0.645E-01
DAV:   6    -0.793857879664E+02    0.38135E-03   -0.83230E-02   144   0.796E-01    0.605E-01
DAV:   7    -0.793822548978E+02    0.35331E-02   -0.30908E-02   144   0.627E-01    0.246E-01
DAV:   8    -0.793819111537E+02    0.34374E-03   -0.49193E-03   136   0.313E-01    0.926E-02
DAV:   9    -0.793819255620E+02   -0.14408E-04   -0.18873E-03   120   0.119E-01    0.425E-02
DAV:  10    -0.793819893944E+02   -0.63832E-04   -0.19002E-04    72   0.583E-02
  45 F= -.79381989E+02 E0= -.79316164E+02  d E =-.803654E+00
       N       E                     dE             d eps       ncg     rms          rms(c)
DAV:   1    -0.798375103212E+02   -0.45558E+00   -0.13998E+01   104   0.268E+01    0.116E+00
DAV:   2    -0.799306852865E+02   -0.93175E-01   -0.13998E+00   112   0.514E+00    0.143E+00
DAV:   3    -0.798981876265E+02    0.32498E-01   -0.51049E-01   136   0.183E+00    0.884E-01
DAV:   4    -0.798933516488E+02    0.48360E-02   -0.11861E-01   136   0.172E+00    0.687E-01
DAV:   5    -0.798907007760E+02    0.26509E-02   -0.94330E-02   144   0.960E-01    0.528E-01
DAV:   6    -0.798892110181E+02    0.14898E-02   -0.69337E-02   144   0.506E-01    0.359E-01
DAV:   7    -0.798887768019E+02    0.43422E-03   -0.33104E-02   144   0.324E-01    0.293E-01
DAV:   8    -0.798877459481E+02    0.10309E-02   -0.85115E-03   144   0.320E-01    0.655E-02
DAV:   9    -0.798879014129E+02   -0.15546E-03   -0.54280E-04    88   0.835E-02    0.299E-02
DAV:  10    -0.798880064240E+02   -0.10501E-03   -0.70702E-05    72   0.421E-02    0.107E-02
DAV:  11    -0.798880732806E+02   -0.66857E-04   -0.26431E-05    72   0.205E-02
  46 F= -.79888073E+02 E0= -.79824881E+02  d E =-.506084E+00
       N       E                     dE             d eps       ncg     rms          rms(c)
DAV:   1    -0.801100313579E+02   -0.22202E+00   -0.44426E+01   104   0.474E+01    0.226E+00
DAV:   2    -0.804526250496E+02   -0.34259E+00   -0.54144E+00   128   0.926E+00    0.300E+00
DAV:   3    -0.802783376810E+02    0.17429E+00   -0.18658E+00   136   0.323E+00    0.138E+00
DAV:   4    -0.802699386771E+02    0.83990E-02   -0.50978E-01   144   0.202E+00    0.125E+00
DAV:   5    -0.802569701783E+02    0.12968E-01   -0.34052E-01   152   0.108E+00    0.869E-01
DAV:   6    -0.802537283971E+02    0.32418E-02   -0.21389E-01   144   0.104E+00    0.669E-01
DAV:   7    -0.802490365001E+02    0.46919E-02   -0.53931E-02   136   0.825E-01    0.310E-01
DAV:   8    -0.802488811706E+02    0.15533E-03   -0.18226E-02   144   0.635E-01    0.210E-01
DAV:   9    -0.802486575560E+02    0.22361E-03   -0.51466E-03   136   0.260E-01    0.526E-02
DAV:  10    -0.802489336636E+02   -0.27611E-03   -0.34840E-04    96   0.757E-02    0.238E-02
DAV:  11    -0.802490994292E+02   -0.16577E-03   -0.63151E-05    72   0.377E-02    0.132E-02
DAV:  12    -0.802492844471E+02   -0.18502E-03   -0.36511E-05    72   0.197E-02    0.593E-03
DAV:  13    -0.802494569635E+02   -0.17252E-03   -0.17847E-05    72   0.134E-02    0.373E-03
DAV:  14    -0.802496387003E+02   -0.18174E-03   -0.22618E-05    72   0.102E-02    0.276E-03
DAV:  15    -0.802497727509E+02   -0.13405E-03   -0.24975E-05    80   0.873E-03    0.164E-03
DAV:  16    -0.802498410620E+02   -0.68311E-04   -0.76870E-06    64   0.609E-03
  47 F= -.80249841E+02 E0= -.80190585E+02  d E =-.867852E+00
       N       E                     dE             d eps       ncg     rms          rms(c)
DAV:   1    -0.805410133477E+02   -0.29124E+00   -0.12200E+01   104   0.253E+01    0.114E+00
DAV:   2    -0.806167938056E+02   -0.75780E-01   -0.11841E+00   112   0.489E+00    0.136E+00
DAV:   3    -0.805931650120E+02    0.23629E-01   -0.48179E-01   152   0.183E+00    0.834E-01
DAV:   4    -0.805867422836E+02    0.64227E-02   -0.77277E-02   128   0.117E+00    0.453E-01
DAV:   5    -0.805870608458E+02   -0.31856E-03   -0.63177E-02   136   0.101E+00    0.430E-01
DAV:   6    -0.805867208408E+02    0.34000E-03   -0.60270E-02   144   0.460E-01    0.364E-01
DAV:   7    -0.805848462185E+02    0.18746E-02   -0.26032E-02   144   0.264E-01    0.155E-01
DAV:   8    -0.805849876327E+02   -0.14141E-03   -0.48220E-03   136   0.215E-01    0.118E-01
DAV:   9    -0.805848650603E+02    0.12257E-03   -0.11625E-03   120   0.129E-01    0.264E-02
DAV:  10    -0.805849196561E+02   -0.54596E-04   -0.74070E-05    72   0.417E-02
  48 F= -.80584920E+02 E0= -.80526595E+02  d E =-.335079E+00
       N       E                     dE             d eps       ncg     rms          rms(c)
DAV:   1    -0.806651255402E+02   -0.80260E-01   -0.17785E+01   104   0.305E+01    0.137E+00
DAV:   2    -0.807761251433E+02   -0.11100E+00   -0.16652E+00   112   0.591E+00    0.167E+00
[...]
DAV:  12    -0.961514374965E+02   -0.19951E-03   -0.38846E-05    72   0.132E-02    0.224E-03
DAV:  13    -0.961515383581E+02   -0.10086E-03   -0.12567E-05    72   0.852E-03    0.142E-03
DAV:  14    -0.961515901591E+02   -0.51801E-04   -0.92133E-06    56   0.615E-03
 195 F= -.96151590E+02 E0= -.96136216E+02  d E =-.286159E+00
       N       E                     dE             d eps       ncg     rms          rms(c)
DAV:   1    -0.960923353107E+02    0.59203E-01   -0.12346E+01   112   0.332E+01    0.948E-01
DAV:   2    -0.962178243884E+02   -0.12549E+00   -0.15388E+00    96   0.638E+00    0.643E-01
DAV:   3    -0.962194969760E+02   -0.16726E-02   -0.10797E-01   144   0.221E+00    0.520E-01
DAV:   4    -0.962172714054E+02    0.22256E-02   -0.36023E-02   136   0.124E+00    0.369E-01
DAV:   5    -0.962172837553E+02   -0.12350E-04   -0.20520E-02   136   0.958E-01    0.306E-01
DAV:   6    -0.962162290767E+02    0.10547E-02   -0.10475E-02   136   0.500E-01    0.715E-02
DAV:   7    -0.962163589926E+02   -0.12992E-03   -0.87134E-04   120   0.138E-01    0.254E-02
DAV:   8    -0.962164110084E+02   -0.52016E-04   -0.69717E-05    72   0.557E-02
 196 F= -.96216411E+02 E0= -.96198753E+02  d E =-.350980E+00
       N       E                     dE             d eps       ncg     rms          rms(c)
DAV:   1    -0.962800811959E+02   -0.63722E-01   -0.14895E+00   112   0.117E+01    0.358E-01
DAV:   2    -0.962952658839E+02   -0.15185E-01   -0.19121E-01   112   0.228E+00    0.261E-01
DAV:   3    -0.962955795792E+02   -0.31370E-03   -0.18917E-02   152   0.860E-01    0.267E-01
DAV:   4    -0.962947104531E+02    0.86913E-03   -0.66121E-03   144   0.529E-01    0.114E-01
DAV:   5    -0.962948975428E+02   -0.18709E-03   -0.26309E-03   136   0.337E-01    0.103E-01
DAV:   6    -0.962947929178E+02    0.10462E-03   -0.12393E-03   120   0.224E-01    0.272E-02
DAV:   7    -0.962948242417E+02   -0.31324E-04   -0.11114E-04    64   0.552E-02
 197 F= -.96294824E+02 E0= -.96279345E+02  d E =-.784132E-01
       N       E                     dE             d eps       ncg     rms          rms(c)
DAV:   1    -0.962711071516E+02    0.23686E-01   -0.11951E+01   112   0.330E+01    0.987E-01
DAV:   2    -0.963917682332E+02   -0.12066E+00   -0.15034E+00   112   0.644E+00    0.688E-01
DAV:   3    -0.963943145776E+02   -0.25463E-02   -0.13831E-01   160   0.262E+00    0.736E-01
DAV:   4    -0.963877100590E+02    0.66045E-02   -0.52264E-02   144   0.145E+00    0.310E-01
DAV:   5    -0.963884797557E+02   -0.76970E-03   -0.17753E-02   136   0.997E-01    0.268E-01
DAV:   6    -0.963876249668E+02    0.85479E-03   -0.94292E-03   144   0.574E-01    0.825E-02
DAV:   7    -0.963877229977E+02   -0.98031E-04   -0.10597E-03   120   0.156E-01    0.286E-02
DAV:   8    -0.963878218758E+02   -0.98878E-04   -0.91834E-05    80   0.638E-02
 198 F= -.96387822E+02 E0= -.96378564E+02  d E =-.171411E+00
       N       E                     dE             d eps       ncg     rms          rms(c)
DAV:   1    -0.964345675674E+02   -0.46845E-01   -0.20991E+00   112   0.125E+01    0.386E-01
DAV:   2    -0.964494204066E+02   -0.14853E-01   -0.19620E-01   112   0.237E+00    0.302E-01
DAV:   3    -0.964498630240E+02   -0.44262E-03   -0.22125E-02   152   0.112E+00    0.314E-01
DAV:   4    -0.964485568055E+02    0.13062E-02   -0.85369E-03   144   0.648E-01    0.108E-01
DAV:   5    -0.964487758023E+02   -0.21900E-03   -0.15838E-03   128   0.269E-01    0.460E-02
DAV:   6    -0.964488209205E+02   -0.45118E-04   -0.43339E-04   104   0.134E-01
 199 F= -.96448821E+02 E0= -.96440631E+02  d E =-.609990E-01
       N       E                     dE             d eps       ncg     rms          rms(c)
DAV:   1    -0.964543088423E+02   -0.55330E-02   -0.25740E+00   112   0.138E+01    0.428E-01
DAV:   2    -0.964724749569E+02   -0.18166E-01   -0.24030E-01   112   0.262E+00    0.325E-01
DAV:   3    -0.964730925096E+02   -0.61755E-03   -0.26236E-02   152   0.123E+00    0.346E-01
DAV:   4    -0.964715345974E+02    0.15579E-02   -0.10396E-02   144   0.729E-01    0.123E-01
DAV:   5    -0.964717761494E+02   -0.24155E-03   -0.19935E-03   128   0.310E-01    0.538E-02
DAV:   6    -0.964718193475E+02   -0.43198E-04   -0.59452E-04   112   0.157E-01
 200 F= -.96471819E+02 E0= -.96464663E+02  d E =-.839975E-01
       N       E                     dE             d eps       ncg     rms          rms(c)
DAV:   1    -0.965157714998E+02   -0.43995E-01   -0.23728E+00   104   0.119E+01    0.382E-01
DAV:   2    -0.965270611920E+02   -0.11290E-01   -0.15619E-01   112   0.214E+00    0.259E-01
DAV:   3    -0.965274773695E+02   -0.41618E-03   -0.15456E-02   144   0.847E-01    0.278E-01
DAV:   4    -0.965265333944E+02    0.94398E-03   -0.90966E-03   144   0.689E-01    0.132E-01
DAV:   5    -0.965265779712E+02   -0.44577E-04   -0.17349E-03   128   0.298E-01    0.301E-02
DAV:   6    -0.965266367823E+02   -0.58811E-04   -0.27174E-04    96   0.107E-01
 201 F= -.96526637E+02 E0= -.96521666E+02  d E =-.548174E-01
       N       E                     dE             d eps       ncg     rms          rms(c)
DAV:   1    -0.965343697782E+02   -0.77918E-02   -0.34558E+00   104   0.144E+01    0.458E-01
DAV:   2    -0.965512501101E+02   -0.16880E-01   -0.22932E-01   112   0.259E+00    0.311E-01
DAV:   3    -0.965518040913E+02   -0.55398E-03   -0.22524E-02   144   0.102E+00    0.333E-01
DAV:   4    -0.965504401352E+02    0.13640E-02   -0.12863E-02   144   0.823E-01    0.156E-01
DAV:   5    -0.965504867970E+02   -0.46662E-04   -0.25465E-03   128   0.360E-01    0.432E-02
DAV:   6    -0.965505367897E+02   -0.49993E-04   -0.54847E-04   120   0.148E-01
 202 F= -.96550537E+02 E0= -.96547437E+02  d E =-.787174E-01
       N       E                     dE             d eps       ncg     rms          rms(c)
DAV:   1    -0.965796186609E+02   -0.29132E-01   -0.28302E+00   104   0.139E+01    0.443E-01
DAV:   2    -0.965968358819E+02   -0.17217E-01   -0.23307E-01   112   0.260E+00    0.271E-01
DAV:   3    -0.965968629233E+02   -0.27041E-04   -0.18325E-02   152   0.790E-01    0.248E-01
DAV:   4    -0.965964843606E+02    0.37856E-03   -0.10849E-02   136   0.709E-01    0.192E-01
DAV:   5    -0.965962355991E+02    0.24876E-03   -0.29794E-03   136   0.408E-01    0.642E-02
DAV:   6    -0.965962608368E+02   -0.25238E-04   -0.92845E-04   120   0.189E-01
 203 F= -.96596261E+02 E0= -.96593828E+02  d E =-.457240E-01
       N       E                     dE             d eps       ncg     rms          rms(c)
DAV:   1    -0.965962400440E+02   -0.44448E-05   -0.21852E+00   104   0.122E+01    0.387E-01
DAV:   2    -0.966096917014E+02   -0.13452E-01   -0.18051E-01   112   0.228E+00    0.236E-01
DAV:   3    -0.966097597450E+02   -0.68044E-04   -0.14187E-02   152   0.704E-01    0.219E-01
DAV:   4    -0.966094573589E+02    0.30239E-03   -0.81998E-03   136   0.611E-01    0.164E-01
DAV:   5    -0.966093126423E+02    0.14472E-03   -0.22541E-03   136   0.357E-01    0.599E-02
DAV:   6    -0.966093244483E+02   -0.11806E-04   -0.74123E-04   104   0.168E-01
 204 F= -.96609324E+02 E0= -.96607370E+02  d E =-.587877E-01
       N       E                     dE             d eps       ncg     rms          rms(c)
DAV:   1    -0.966260303205E+02   -0.16718E-01   -0.32211E+00   112   0.157E+01    0.432E-01
DAV:   2    -0.966529050906E+02   -0.26875E-01   -0.31405E-01   112   0.305E+00    0.360E-01
DAV:   3    -0.966531553362E+02   -0.25025E-03   -0.28888E-02   152   0.124E+00    0.293E-01
DAV:   4    -0.966521201669E+02    0.10352E-02   -0.95305E-03   136   0.703E-01    0.150E-01
DAV:   5    -0.966522216293E+02   -0.10146E-03   -0.17736E-03   128   0.290E-01    0.390E-02
DAV:   6    -0.966523352263E+02   -0.11360E-03   -0.46238E-04   112   0.106E-01    0.349E-02
DAV:   7    -0.966523342735E+02    0.95282E-06   -0.15073E-04    80   0.822E-02
 205 F= -.96652334E+02 E0= -.96650718E+02  d E =-.430098E-01
       N       E                     dE             d eps       ncg     rms          rms(c)
DAV:   1    -0.966349014635E+02    0.17434E-01   -0.41360E+00   112   0.178E+01    0.490E-01
DAV:   2    -0.966696549364E+02   -0.34753E-01   -0.40573E-01   112   0.346E+00    0.407E-01
DAV:   3    -0.966699018080E+02   -0.24687E-03   -0.36928E-02   152   0.141E+00    0.330E-01
DAV:   4    -0.966685456536E+02    0.13562E-02   -0.12242E-02   136   0.792E-01    0.170E-01
DAV:   5    -0.966686332141E+02   -0.87560E-04   -0.21990E-03   128   0.330E-01    0.405E-02
DAV:   6    -0.966687590745E+02   -0.12586E-03   -0.35413E-04   104   0.940E-02    0.258E-02
DAV:   7    -0.966687720681E+02   -0.12994E-04   -0.96166E-05    72   0.687E-02
 206 F= -.96668772E+02 E0= -.96667469E+02  d E =-.594476E-01
       N       E                     dE             d eps       ncg     rms          rms(c)
DAV:   1    -0.966795232165E+02   -0.10764E-01   -0.27631E+00   112   0.140E+01    0.440E-01
DAV:   2    -0.967009631132E+02   -0.21440E-01   -0.27167E-01   120   0.292E+00    0.549E-01
DAV:   3    -0.966978310728E+02    0.31320E-02   -0.39091E-02   152   0.176E+00    0.251E-01
DAV:   4    -0.966972606087E+02    0.57046E-03   -0.61253E-03   136   0.545E-01    0.115E-01
DAV:   5    -0.966974165214E+02   -0.15591E-03   -0.14432E-03   120   0.225E-01    0.381E-02
DAV:   6    -0.966974867877E+02   -0.70266E-04   -0.28120E-04    80   0.886E-02
 207 F= -.96697487E+02 E0= -.96696186E+02  d E =-.287147E-01
       N       E                     dE             d eps       ncg     rms          rms(c)
DAV:   1    -0.966949971322E+02    0.24194E-02   -0.12212E+00   112   0.934E+00    0.292E-01
DAV:   2    -0.967042364107E+02   -0.92393E-02   -0.11774E-01   112   0.198E+00    0.353E-01
DAV:   3    -0.967030400402E+02    0.11964E-02   -0.16650E-02   144   0.111E+00    0.162E-01
DAV:   4    -0.967028766594E+02    0.16338E-03   -0.25466E-03   136   0.373E-01    0.790E-02
DAV:   5    -0.967029787544E+02   -0.10210E-03   -0.75314E-04   120   0.161E-01    0.336E-02
DAV:   6    -0.967030082325E+02   -0.29478E-04   -0.21319E-04    80   0.768E-02
 208 F= -.96703008E+02 E0= -.96701693E+02  d E =-.342362E-01
       N       E                     dE             d eps       ncg     rms          rms(c)
DAV:   1    -0.967021809680E+02    0.79779E-03   -0.15836E+00   112   0.116E+01    0.321E-01
DAV:   2    -0.967166170970E+02   -0.14436E-01   -0.16969E-01   112   0.221E+00    0.282E-01
DAV:   3    -0.967164212760E+02    0.19582E-03   -0.14019E-02   152   0.104E+00    0.216E-01
DAV:   4    -0.967160044806E+02    0.41680E-03   -0.46422E-03   136   0.546E-01    0.112E-01
DAV:   5    -0.967161686014E+02   -0.16412E-03   -0.27068E-03   144   0.274E-01    0.902E-02
DAV:   6    -0.967160914982E+02    0.77103E-04   -0.10817E-03   112   0.152E-01    0.212E-02
DAV:   7    -0.967161237341E+02   -0.32236E-04   -0.64116E-05    64   0.596E-02
 209 F= -.96716124E+02 E0= -.96715091E+02  d E =-.131155E-01
       N       E                     dE             d eps       ncg     rms          rms(c)
DAV:   1    -0.967160179920E+02    0.73506E-04   -0.49361E-02   112   0.205E+00    0.557E-02
DAV:   2    -0.967164735008E+02   -0.45551E-03   -0.52803E-03   112   0.386E-01    0.428E-02
DAV:   3    -0.967164802314E+02   -0.67307E-05   -0.31509E-04    96   0.150E-01
 210 F= -.96716480E+02 E0= -.96715492E+02  d E =-.134720E-01
       N       E                     dE             d eps       ncg     rms          rms(c)
DAV:   1    -0.967166885903E+02   -0.21509E-03   -0.63471E-01   112   0.669E+00    0.206E-01
DAV:   2    -0.967212143705E+02   -0.45258E-02   -0.58418E-02    96   0.120E+00    0.122E-01
DAV:   3    -0.967211781401E+02    0.36230E-04   -0.29165E-03   152   0.337E-01    0.911E-02
DAV:   4    -0.967212331650E+02   -0.55025E-04   -0.15116E-03   128   0.305E-01    0.912E-02
DAV:   5    -0.967211762000E+02    0.56965E-04   -0.88138E-04   112   0.231E-01
 211 F= -.96721176E+02 E0= -.96720200E+02  d E =-.469597E-02
       N       E                     dE             d eps       ncg     rms          rms(c)
DAV:   1    -0.967211754963E+02    0.57669E-04   -0.28900E-04    88   0.111E-01    0.164E-02
DAV:   2    -0.967211880983E+02   -0.12602E-04   -0.11445E-04    64   0.647E-02
 212 F= -.96721188E+02 E0= -.96720212E+02  d E =-.470787E-02
       N       E                     dE             d eps       ncg     rms          rms(c)
DAV:   1    -0.967217655714E+02   -0.59008E-03   -0.48174E-01   112   0.545E+00    0.174E-01
DAV:   2    -0.967243731723E+02   -0.26076E-02   -0.36350E-02   112   0.100E+00    0.108E-01
DAV:   3    -0.967243766431E+02   -0.34708E-05   -0.22596E-03   152   0.296E-01    0.761E-02
DAV:   4    -0.967244123744E+02   -0.35731E-04   -0.11048E-03   112   0.272E-01    0.799E-02
DAV:   5    -0.967243656850E+02    0.46689E-04   -0.64306E-04    96   0.199E-01
 213 F= -.96724366E+02 E0= -.96723566E+02  d E =-.317759E-02
       N       E                     dE             d eps       ncg     rms          rms(c)
DAV:   1    -0.967243732705E+02    0.39104E-04   -0.82545E-04   112   0.205E-01    0.149E-02
DAV:   2    -0.967243847410E+02   -0.11471E-04   -0.12248E-04    48   0.631E-02
 214 F= -.96724385E+02 E0= -.96723573E+02  d E =-.319664E-02
       N       E                     dE             d eps       ncg     rms          rms(c)
DAV:   1    -0.967267770160E+02   -0.24037E-02   -0.20971E-01    96   0.267E+00    0.120E-01
DAV:   2    -0.967270375886E+02   -0.26057E-03   -0.88968E-03   120   0.472E-01    0.758E-02
DAV:   3    -0.967270389569E+02   -0.13683E-05   -0.13713E-03   128   0.179E-01    0.679E-02
DAV:   4    -0.967269943215E+02    0.44635E-04   -0.74539E-04    96   0.162E-01
 215 F= -.96726994E+02 E0= -.96726258E+02  d E =-.260958E-02
       N       E                     dE             d eps       ncg     rms          rms(c)
DAV:   1    -0.967271990069E+02   -0.16005E-03   -0.45193E-02    96   0.125E+00    0.684E-02
DAV:   2    -0.967272877203E+02   -0.88713E-04   -0.22590E-03   120   0.297E-01    0.662E-02
DAV:   3    -0.967272546825E+02    0.33038E-04   -0.65160E-04    96   0.221E-01
 216 F= -.96727255E+02 E0= -.96726544E+02  d E =-.286994E-02
       N       E                     dE             d eps       ncg     rms          rms(c)
DAV:   1    -0.967290551432E+02   -0.17674E-02   -0.19681E-01    96   0.280E+00    0.118E-01
DAV:   2    -0.967294766951E+02   -0.42155E-03   -0.92673E-03   120   0.501E-01    0.835E-02
DAV:   3    -0.967295385917E+02   -0.61897E-04   -0.16449E-03   128   0.319E-01    0.971E-02
DAV:   4    -0.967294109060E+02    0.12769E-03   -0.85759E-04   112   0.217E-01    0.297E-02
DAV:   5    -0.967294263741E+02   -0.15468E-04   -0.10866E-04    56   0.642E-02
 217 F= -.96729426E+02 E0= -.96728759E+02  d E =-.217169E-02
       N       E                     dE             d eps       ncg     rms          rms(c)
DAV:   1    -0.967296262195E+02   -0.21531E-03   -0.57457E-02    96   0.151E+00    0.623E-02
DAV:   2    -0.967297569897E+02   -0.13077E-03   -0.27097E-03   120   0.280E-01    0.471E-02
DAV:   3    -0.967297676879E+02   -0.10698E-04   -0.46659E-04    96   0.174E-01
 218 F= -.96729768E+02 E0= -.96729109E+02  d E =-.251301E-02
       N       E                     dE             d eps       ncg     rms          rms(c)
DAV:   1    -0.967308162785E+02   -0.10593E-02   -0.20554E-01   104   0.345E+00    0.118E-01
DAV:   2    -0.967316665683E+02   -0.85029E-03   -0.13210E-02    96   0.619E-01    0.732E-02
DAV:   3    -0.967316987506E+02   -0.32182E-04   -0.11363E-03   152   0.232E-01    0.703E-02
DAV:   4    -0.967316620908E+02    0.36660E-04   -0.70842E-04    96   0.207E-01
 219 F= -.96731662E+02 E0= -.96731085E+02  d E =-.189440E-02
       N       E                     dE             d eps       ncg     rms          rms(c)
DAV:   1    -0.967316428748E+02    0.55876E-04   -0.65768E-02   112   0.195E+00    0.684E-02
DAV:   2    -0.967319154122E+02   -0.27254E-03   -0.42253E-03    96   0.360E-01    0.478E-02
DAV:   3    -0.967319276432E+02   -0.12231E-04   -0.49348E-04    96   0.150E-01
 220 F= -.96731928E+02 E0= -.96731378E+02  d E =-.215996E-02
       N       E                     dE             d eps       ncg     rms          rms(c)
DAV:   1    -0.967316387282E+02    0.27668E-03   -0.23709E-01   112   0.416E+00    0.128E-01
DAV:   2    -0.967333899847E+02   -0.17513E-02   -0.22306E-02    96   0.765E-01    0.766E-02
DAV:   3    -0.967334279996E+02   -0.38015E-04   -0.12465E-03   152   0.232E-01    0.617E-02
DAV:   4    -0.967334338896E+02   -0.58900E-05   -0.65824E-04    96   0.206E-01
 221 F= -.96733434E+02 E0= -.96732927E+02  d E =-.150625E-02
       N       E                     dE             d eps       ncg     rms          rms(c)
DAV:   1    -0.967330498074E+02    0.37819E-03   -0.76728E-02   112   0.238E+00    0.758E-02
DAV:   2    -0.967336284910E+02   -0.57868E-03   -0.74335E-03    96   0.462E-01    0.590E-02
DAV:   3    -0.967336435154E+02   -0.15024E-04   -0.77103E-04   112   0.207E-01
 222 F= -.96733644E+02 E0= -.96733146E+02  d E =-.171587E-02
       N       E                     dE             d eps       ncg     rms          rms(c)
DAV:   1    -0.967324924978E+02    0.11360E-02   -0.31628E-01   112   0.480E+00    0.148E-01
DAV:   2    -0.967351219557E+02   -0.26295E-02   -0.32604E-02    96   0.898E-01    0.103E-01
DAV:   3    -0.967351989970E+02   -0.77041E-04   -0.23766E-03   152   0.389E-01    0.101E-01
DAV:   4    -0.967350911414E+02    0.10786E-03   -0.10711E-03   112   0.248E-01    0.498E-02
DAV:   5    -0.967351088717E+02   -0.17730E-04   -0.24535E-04    72   0.115E-01
 223 F= -.96735109E+02 E0= -.96734665E+02  d E =-.146536E-02
       N       E                     dE             d eps       ncg     rms          rms(c)
DAV:   1    -0.967350167982E+02    0.74343E-04   -0.16764E-02   112   0.112E+00    0.368E-02
DAV:   2    -0.967351651440E+02   -0.14835E-03   -0.18236E-03   104   0.227E-01    0.335E-02
DAV:   3    -0.967351596474E+02    0.54966E-05   -0.14989E-04    72   0.120E-01
 224 F= -.96735160E+02 E0= -.96734725E+02  d E =-.151613E-02
       N       E                     dE             d eps       ncg     rms          rms(c)
DAV:   1    -0.967350215796E+02    0.14356E-03   -0.20411E-01   112   0.375E+00    0.116E-01
DAV:   2    -0.967365091654E+02   -0.14876E-02   -0.19430E-02   112   0.715E-01    0.777E-02
DAV:   3    -0.967365836708E+02   -0.74505E-04   -0.15572E-03   152   0.285E-01    0.778E-02
DAV:   4    -0.967365135241E+02    0.70147E-04   -0.65684E-04    88   0.196E-01
 225 F= -.96736514E+02 E0= -.96736097E+02  d E =-.135388E-02
       N       E                     dE             d eps       ncg     rms          rms(c)
DAV:   1    -0.967355898624E+02    0.99381E-03   -0.16148E-01   112   0.336E+00    0.105E-01
DAV:   2    -0.967367766966E+02   -0.11868E-02   -0.15552E-02   112   0.658E-01    0.784E-02
DAV:   3    -0.967368327921E+02   -0.56095E-04   -0.14999E-03   144   0.301E-01    0.756E-02
DAV:   4    -0.967367582980E+02    0.74494E-04   -0.52191E-04    80   0.181E-01
 226 F= -.96736758E+02 E0= -.96736355E+02  d E =-.159865E-02
       N       E                     dE             d eps       ncg     rms          rms(c)
DAV:   1    -0.967367829007E+02    0.49891E-04   -0.19577E-01    96   0.331E+00    0.107E-01
DAV:   2    -0.967377570116E+02   -0.97411E-03   -0.13206E-02   104   0.657E-01    0.102E-01
DAV:   3    -0.967377209631E+02    0.36048E-04   -0.17442E-03   136   0.353E-01    0.708E-02
DAV:   4    -0.967376616731E+02    0.59290E-04   -0.53676E-04    96   0.172E-01
 227 F= -.96737662E+02 E0= -.96737283E+02  d E =-.903375E-03
       N       E                     dE             d eps       ncg     rms          rms(c)
DAV:   1    -0.967376215466E+02    0.99416E-04   -0.16007E-02    96   0.949E-01    0.338E-02
DAV:   2    -0.967377082243E+02   -0.86678E-04   -0.11183E-03    96   0.193E-01    0.307E-02
DAV:   3    -0.967377064042E+02    0.18201E-05   -0.13442E-04    72   0.102E-01
 228 F= -.96737706E+02 E0= -.96737330E+02  d E =-.948106E-03
