unknown system                          
           1
    20.738775    0.000000    0.000000
     0.000000   20.180822    0.000000
     0.000000    0.000000   18.777092
   Ti   Al   B 
     2     4    12
Direct configuration=     1
   0.35208239  0.50389082  0.61975606
   0.52878036  0.42769678  0.46244152
   0.52677715  0.59649589  0.64727117
   0.50185727  0.39379683  0.34292912
   0.59427659  0.49057471  0.63978879
   0.52845680  0.56051836  0.55625638
   0.47083804  0.55186492  0.51565042
   0.55186434  0.50259723  0.54810661
   0.50862655  0.30157008  0.40621548
   0.40235875  0.43591977  0.51152713
   0.51390702  0.34147010  0.44669788
   0.54325257  0.45505439  0.56024556
   0.51521681  0.56397134  0.46547372
   0.31393946  0.52899685  0.57553504
   0.57189995  0.54387190  0.51863896
   0.50332194  0.61923673  0.47583876
   0.48055029  0.49067793  0.55371591
   0.44979340  0.60055274  0.54249292
Direct configuration=     2
   0.39784831  0.47499928  0.66695561
   0.52961259  0.44056839  0.46291414
   0.52373805  0.60978178  0.67667416
   0.50046784  0.38900441  0.34072056
   0.59926198  0.48924826  0.64762801
   0.46258187  0.68257856  0.65758946
   0.42055693  0.50748295  0.47350259
   0.58431915  0.47354708  0.54485140
   0.50087065  0.24594226  0.34270913
   0.40628662  0.43961486  0.51485408
   0.51947520  0.38812949  0.50668704
   0.52479186  0.32484593  0.59951333
   0.55137954  0.50883162  0.41722420
   0.27045148  0.55703903  0.52523493
   0.69379438  0.57706236  0.39640584
   0.48337322  0.68057162  0.48754778
   0.46130122  0.46494839  0.55818129
   0.42768879  0.65456108  0.56938789
Direct configuration=     3
   0.39815670  0.47480459  0.66727367
   0.52961819  0.44065512  0.46291732
   0.52371757  0.60987130  0.67687230
   0.50045848  0.38897212  0.34070568
   0.59929557  0.48923932  0.64768083
   0.46213796  0.68340108  0.65827230
   0.42021810  0.50718387  0.47321857
   0.58453785  0.47335132  0.54482946
   0.50081839  0.24556741  0.34228118
   0.40631309  0.43963976  0.51487650
   0.51951272  0.38844391  0.50709128
   0.52466746  0.32396851  0.59977794
   0.55162322  0.50846006  0.41689907
   0.27015843  0.55722800  0.52489598
   0.69461578  0.57728602  0.39558216
   0.48323880  0.68098493  0.48762668
   0.46117151  0.46477501  0.55821138
   0.42753984  0.65492503  0.56956913
Direct configuration=     4
   0.40385935  0.47455796  0.66258427
   0.53263801  0.47592962  0.42887012
   0.53421949  0.59448374  0.67963757
   0.50019256  0.38620894  0.34081527
   0.59737303  0.49154607  0.65173518
   0.44845334  0.70444534  0.66471690
   0.41947315  0.50387209  0.47250906
   0.58467638  0.47070055  0.54307447
   0.50036434  0.24551208  0.33877514
   0.40114036  0.43934626  0.51160601
   0.51129079  0.34670925  0.55377488
   0.52327018  0.32112650  0.59763048
   0.55691229  0.51536820  0.40845407
   0.27046003  0.55796894  0.52288512
   0.69876611  0.57805013  0.38966475
   0.47835138  0.68170074  0.49383748
   0.46700609  0.46473308  0.56603552
   0.42935278  0.65649789  0.56197512
Direct configuration=     5
   0.40032592  0.47471078  0.66548988
   0.53076690  0.45407312  0.44996618
   0.52771237  0.60401806  0.67792417
   0.50035732  0.38792104  0.34074736
   0.59856426  0.49011678  0.64922306
   0.45693250  0.69140606  0.66072375
   0.41993473  0.50592411  0.47294868
   0.58459054  0.47234300  0.54416188
   0.50064567  0.24554636  0.34094753
   0.40434544  0.43952812  0.51363244
   0.51638520  0.37256855  0.52484916
   0.52413595  0.32288744  0.59896107
   0.55363512  0.51108783  0.41368669
   0.27027315  0.55750984  0.52413107
   0.69619452  0.57757668  0.39333125
   0.48137968  0.68125722  0.48998919
   0.46339091  0.46475906  0.56118759
   0.42822946  0.65552332  0.56668046
Direct configuration=     6
   0.39994748  0.47472715  0.66580108
   0.53056649  0.45173222  0.45222563
   0.52701544  0.60503921  0.67774066
   0.50037497  0.38810441  0.34074009
   0.59869184  0.48996370  0.64895400
   0.45784064  0.69000951  0.66029607
   0.41998417  0.50614389  0.47299577
   0.58458135  0.47251891  0.54427835
   0.50067580  0.24555003  0.34118019
   0.40468872  0.43954759  0.51384948
   0.51693082  0.37533816  0.52175113
   0.52422868  0.32307605  0.59910358
   0.55328413  0.51062939  0.41424712
   0.27025314  0.55746067  0.52426452
   0.69591909  0.57752597  0.39372394
   0.48170402  0.68120971  0.48957703
   0.46300372  0.46476184  0.56066836
   0.42810915  0.65541894  0.56718441
Direct configuration=     7
   0.39954632  0.47474450  0.66613096
   0.53035406  0.44925077  0.45462074
   0.52627666  0.60612168  0.67754614
   0.50039368  0.38829879  0.34073238
   0.59882709  0.48980143  0.64866879
   0.45880331  0.68852912  0.65984271
   0.42003657  0.50637686  0.47304568
   0.58457161  0.47270538  0.54440180
   0.50070774  0.24555393  0.34142683
   0.40505260  0.43956824  0.51407955
   0.51750921  0.37827405  0.51846709
   0.52432698  0.32327597  0.59925465
   0.55291206  0.51014343  0.41484120
   0.27023192  0.55740855  0.52440597
   0.69562713  0.57747222  0.39414021
   0.48204784  0.68115936  0.48914012
   0.46259327  0.46476479  0.56011796
   0.42798162  0.65530830  0.56771863
Direct configuration=     8
   0.40409512  0.47571232  0.65880405
   0.52162447  0.43931248  0.45872815
   0.53230867  0.59511982  0.67779227
   0.50008553  0.38544493  0.34025355
   0.59652242  0.49197186  0.65168244
   0.45139351  0.69958536  0.66249400
   0.42162670  0.50518515  0.47361315
   0.58229567  0.47062344  0.54223127
   0.50054572  0.24797701  0.34037340
   0.40231979  0.43962326  0.51283306
   0.51465150  0.36419615  0.53858112
   0.52340438  0.32573721  0.59517837
   0.56271595  0.53526864  0.39742125
   0.27247738  0.55703314  0.52429592
   0.69522523  0.57690656  0.39290935
   0.47756517  0.67942403  0.49544791
   0.46757729  0.46450374  0.56602925
   0.43136517  0.65513225  0.55991292
Direct configuration=     9
   0.40243520  0.47535915  0.66147773
   0.52481001  0.44293909  0.45722931
   0.53010751  0.59913454  0.67770245
   0.50019798  0.38648634  0.34042828
   0.59736342  0.49117984  0.65058272
   0.45409744  0.69555080  0.66152651
   0.42104644  0.50562002  0.47340607
   0.58312619  0.47138317  0.54302333
   0.50060484  0.24709280  0.34075781
   0.40331702  0.43960318  0.51328792
   0.51569431  0.36933335  0.53124126
   0.52374104  0.32483908  0.59666586
   0.55913839  0.52610014  0.40377801
   0.27165798  0.55717013  0.52433608
   0.69537189  0.57711297  0.39335851
   0.47920095  0.68005728  0.49314612
   0.46575856  0.46459900  0.56387214
   0.43013047  0.65519649  0.56276132
Direct configuration=    10
   0.40256138  0.47538600  0.66127449
   0.52456786  0.44266341  0.45734324
   0.53027484  0.59882936  0.67770928
   0.50018943  0.38640717  0.34041500
   0.59729949  0.49124005  0.65066631
   0.45389190  0.69585749  0.66160006
   0.42109055  0.50558696  0.47342182
   0.58306306  0.47132541  0.54296312
   0.50060035  0.24716001  0.34072859
   0.40324122  0.43960471  0.51325334
   0.51561504  0.36894285  0.53179920
   0.52371545  0.32490735  0.59655279
   0.55941034  0.52679708  0.40329480
   0.27172027  0.55715972  0.52433302
   0.69536074  0.57709728  0.39332436
   0.47907661  0.68000914  0.49332109
   0.46589681  0.46459176  0.56403612
   0.43022433  0.65519161  0.56254480
Direct configuration=    11
   0.40550391  0.47597743  0.65504226
   0.52186352  0.44463003  0.45873365
   0.52942185  0.59689861  0.67683781
   0.49982683  0.38387896  0.33903470
   0.59595743  0.49142010  0.65059546
   0.45302589  0.69625997  0.66092377
   0.42329307  0.50527881  0.47333991
   0.58041050  0.46986085  0.54301543
   0.50052158  0.24958329  0.34067002
   0.40389518  0.44045782  0.51608053
   0.51413314  0.37253078  0.52985054
   0.52417299  0.32303232  0.60153423
   0.56195100  0.52931038  0.40200528
   0.27395694  0.55658070  0.52471065
   0.69283397  0.57625016  0.39343893
   0.47699744  0.67849354  0.49641620
   0.46765152  0.46309769  0.56581079
   0.43238288  0.65521590  0.56054126
Direct configuration=    12
   0.40863003  0.47660577  0.64842119
   0.51899046  0.44671935  0.46021081
   0.52851565  0.59484741  0.67591198
   0.49944160  0.38119301  0.33756829
   0.59453163  0.49161138  0.65052019
   0.45210585  0.69668757  0.66020528
   0.42563301  0.50495143  0.47325290
   0.57759244  0.46830491  0.54307101
   0.50043790  0.25215775  0.34060780
   0.40458995  0.44136417  0.51908411
   0.51255878  0.37634258  0.52778030
   0.52465908  0.32104030  0.60682647
   0.56465017  0.53198049  0.40063530
   0.27633316  0.55596556  0.52511184
   0.69014955  0.57535019  0.39356064
   0.47478856  0.67688338  0.49970441
   0.46951571  0.46151040  0.56769619
   0.43467611  0.65524171  0.55841273
Direct configuration=    13
   0.40976955  0.47694542  0.64555781
   0.51766010  0.44847187  0.45956151
   0.52787192  0.59409603  0.67542957
   0.49932037  0.37992044  0.33706655
   0.59388138  0.49158845  0.65038964
   0.45179577  0.69666415  0.65964335
   0.42662422  0.50474580  0.47332619
   0.57627093  0.46749544  0.54341603
   0.50039315  0.25341797  0.34057414
   0.40496870  0.44195504  0.52057869
   0.51199105  0.37713627  0.52837757
   0.52473510  0.32082691  0.60825569
   0.56595906  0.53286827  0.40029124
   0.27753977  0.55564861  0.52532574
   0.68867681  0.57488232  0.39363721
   0.47472379  0.67660677  0.49992157
   0.47085313  0.46070403  0.56824236
   0.43476485  0.65478358  0.55898656
Direct configuration=    14
   0.41318812  0.47796437  0.63696767
   0.51366902  0.45372941  0.45761361
   0.52594073  0.59184190  0.67398233
   0.49895667  0.37610271  0.33556134
   0.59193065  0.49151966  0.64999797
   0.45086551  0.69659389  0.65795757
   0.42959784  0.50412889  0.47354607
   0.57230640  0.46506703  0.54445111
   0.50025891  0.25719863  0.34047316
   0.40610496  0.44372768  0.52506244
   0.51028785  0.37951733  0.53016937
   0.52496316  0.32018674  0.61254336
   0.56988570  0.53553161  0.39925905
   0.28115960  0.55469778  0.52596747
   0.68425861  0.57347871  0.39386692
   0.47452947  0.67577691  0.50057307
   0.47486540  0.45828493  0.56988085
   0.43503108  0.65340919  0.56070805
Direct configuration=    15
   0.42002525  0.48000226  0.61978740
   0.50568685  0.46424451  0.45371783
   0.52207835  0.58733362  0.67108786
   0.49822928  0.36846726  0.33255091
   0.58802917  0.49138209  0.64921464
   0.44900500  0.69645336  0.65458601
   0.43554508  0.50289507  0.47398583
   0.56437735  0.46021019  0.54652127
   0.49999042  0.26475994  0.34027121
   0.40837747  0.44727294  0.53402993
   0.50688145  0.38427947  0.53375299
   0.52541928  0.31890639  0.62111869
   0.57773899  0.54085829  0.39719466
   0.28839924  0.55279612  0.52725091
   0.67542219  0.57067150  0.39432635
   0.47414082  0.67411721  0.50187607
   0.48288992  0.45344674  0.57315783
   0.43556353  0.65066040  0.56415104
Direct configuration=    16
   0.41451056  0.47835854  0.63364466
   0.51212511  0.45576324  0.45686009
   0.52519367  0.59096990  0.67342248
   0.49881598  0.37462586  0.33497906
   0.59117602  0.49149305  0.64984646
   0.45050565  0.69656671  0.65730544
   0.43074816  0.50389025  0.47363113
   0.57077276  0.46412762  0.54485152
   0.50020698  0.25866114  0.34043410
   0.40654451  0.44441340  0.52679693
   0.50962898  0.38043843  0.53086252
   0.52505139  0.31993909  0.61420200
   0.57140469  0.53656190  0.39885975
   0.28255989  0.55432996  0.52621571
   0.68254947  0.57293574  0.39395579
   0.47445430  0.67545589  0.50082510
   0.47641750  0.45734913  0.57051468
   0.43513407  0.65287752  0.56137400
Direct configuration=    17
   0.41348260  0.47944480  0.63354836
   0.51201030  0.45688053  0.45467874
   0.52412304  0.59087441  0.67287356
   0.49882547  0.37377813  0.33497000
   0.59069890  0.49112346  0.64947557
   0.45052594  0.69630153  0.65688668
   0.43022971  0.50417339  0.47438956
   0.56942026  0.46305868  0.54544047
   0.50017123  0.25966119  0.34041348
   0.40717871  0.44506422  0.52747931
   0.50964855  0.38037420  0.53286296
   0.52486491  0.32090704  0.61386544
   0.57304713  0.53695343  0.39898426
   0.28388075  0.55401223  0.52643966
   0.68061474  0.57238905  0.39403738
   0.47546678  0.67572682  0.49953574
   0.47955148  0.45634734  0.56929052
   0.43405915  0.65168692  0.56340972
Direct configuration=    18
   0.41144235  0.48160075  0.63335724
   0.51178244  0.45909807  0.45034928
   0.52199811  0.59068488  0.67178409
   0.49884432  0.37209558  0.33495202
   0.58975194  0.49038990  0.64873944
   0.45056621  0.69577522  0.65605555
   0.42920071  0.50473537  0.47589485
   0.56673588  0.46093710  0.54660938
   0.50010029  0.26164605  0.34037256
   0.40843744  0.44635593  0.52883367
   0.50968738  0.38024674  0.53683337
   0.52449481  0.32282819  0.61319745
   0.57630700  0.53773053  0.39923136
   0.28650233  0.55338162  0.52688416
   0.67677479  0.57130399  0.39419932
   0.47747631  0.67626455  0.49697668
   0.48577167  0.45435903  0.56686086
   0.43192570  0.64932387  0.56745015
Direct configuration=    19
   0.41075021  0.48233215  0.63329240
   0.51170514  0.45985036  0.44888054
   0.52127723  0.59062059  0.67141449
   0.49885072  0.37152478  0.33494592
   0.58943069  0.49014104  0.64848971
   0.45057987  0.69559667  0.65577359
   0.42885162  0.50492602  0.47640551
   0.56582521  0.46021736  0.54700593
   0.50007622  0.26231940  0.34035867
   0.40886445  0.44679414  0.52929313
   0.50970055  0.38020349  0.53818031
   0.52436926  0.32347993  0.61297084
   0.57741289  0.53799416  0.39931519
   0.28739168  0.55316768  0.52703495
   0.67547210  0.57093589  0.39425425
   0.47815804  0.67644697  0.49610853
   0.48788184  0.45368451  0.56603661
   0.43120194  0.64852222  0.56882084
Direct configuration=    20
   0.41013298  0.48367379  0.63259781
   0.51225482  0.46021463  0.44672204
   0.51953215  0.59092251  0.67058074
   0.49895215  0.37104001  0.33519084
   0.58888677  0.48942207  0.64783566
   0.45098926  0.69570641  0.65661544
   0.42761446  0.50598576  0.47753001
   0.56507745  0.45858144  0.54683936
   0.50005086  0.26301929  0.34038781
   0.41029037  0.44699661  0.53021700
   0.51065719  0.37887913  0.53998982
   0.52394893  0.32564245  0.61126475
   0.58006455  0.53830738  0.39984535
   0.28938797  0.55277223  0.52745456
   0.67237483  0.57005739  0.39439820
   0.47790880  0.67578481  0.49671314
   0.48851906  0.45479424  0.56650095
   0.43115707  0.64695724  0.56789793
Direct configuration=    21
   0.40846101  0.48730800  0.63071630
   0.51374379  0.46120137  0.44087514
   0.51480510  0.59174035  0.66832229
   0.49922690  0.36972685  0.33585428
   0.58741340  0.48747453  0.64606397
   0.45209823  0.69600365  0.65889584
   0.42426324  0.50885636  0.48057605
   0.56305191  0.45415006  0.54638814
   0.49998218  0.26491515  0.34046675
   0.41415290  0.44754505  0.53271958
   0.51324854  0.37529170  0.54489141
   0.52281034  0.33150027  0.60664331
   0.58724733  0.53915583  0.40128145
   0.29479551  0.55170104  0.52859120
   0.66398495  0.56767770  0.39478811
   0.47723366  0.67399115  0.49835089
   0.49024516  0.45780029  0.56775875
   0.43103552  0.64271803  0.56539798
Direct configuration=    22
   0.40882368  0.48651971  0.63112442
   0.51342081  0.46098734  0.44214339
   0.51583044  0.59156295  0.66881217
   0.49916730  0.37001169  0.33571037
   0.58773299  0.48789697  0.64644827
   0.45185768  0.69593917  0.65840119
   0.42499015  0.50823369  0.47991534
   0.56349127  0.45511127  0.54648602
   0.49999708  0.26450392  0.34044963
   0.41331508  0.44742608  0.53217675
   0.51268645  0.37606985  0.54382820
   0.52305731  0.33022965  0.60764574
   0.58568932  0.53897179  0.40096995
   0.29362256  0.55193339  0.52834465
   0.66580480  0.56819388  0.39470353
   0.47738010  0.67438022  0.49799564
   0.48987075  0.45714825  0.56748592
   0.43106188  0.64363756  0.56594024
Direct configuration=    23
   0.40832922  0.48880758  0.62996845
   0.51351475  0.46182076  0.44164623
   0.51360358  0.59141144  0.66749103
   0.49934086  0.36995630  0.33602043
   0.58671882  0.48700477  0.64551650
   0.45201766  0.69587836  0.65866100
   0.42402514  0.50967098  0.48112987
   0.56416742  0.45214778  0.54494066
   0.49998694  0.26469944  0.34055060
   0.41556835  0.44668042  0.53286290
   0.51355701  0.37868426  0.54162520
   0.52307390  0.33100450  0.60868647
   0.58847603  0.53876687  0.40211074
   0.29698257  0.55137077  0.52905889
   0.66185935  0.56698150  0.39496251
   0.47621801  0.67275328  0.49997013
   0.48833439  0.45909327  0.56888989
   0.43202568  0.64202508  0.56448995
Direct configuration=    24
   0.40786498  0.49095558  0.62888315
   0.51360294  0.46260324  0.44117947
   0.51151285  0.59126920  0.66625066
   0.49950380  0.36990429  0.33631152
   0.58576665  0.48616712  0.64464170
   0.45216787  0.69582126  0.65890491
   0.42311912  0.51102040  0.48227015
   0.56480223  0.44936547  0.54348977
   0.49997743  0.26488301  0.34064539
   0.41768387  0.44598033  0.53350710
   0.51437434  0.38113883  0.53955688
   0.52308947  0.33173197  0.60966356
   0.59109237  0.53857449  0.40318179
   0.30013715  0.55084255  0.52972946
   0.65815512  0.56584325  0.39520566
   0.47512696  0.67122580  0.50182390
   0.48689195  0.46091938  0.57020802
   0.43293055  0.64051119  0.56312832
Direct configuration=    25
   0.40704823  0.49400276  0.62776423
   0.51342436  0.46406340  0.44175426
   0.50948553  0.59043360  0.66463873
   0.49970988  0.37023925  0.33665113
   0.58442724  0.48534815  0.64345065
   0.45193707  0.69572412  0.65824799
   0.42213387  0.51216924  0.48391344
   0.56495231  0.44647329  0.54217357
   0.49997829  0.26465248  0.34077802
   0.41959500  0.44475972  0.53283332
   0.51510477  0.38401694  0.53721210
   0.52300006  0.33308578  0.61022651
   0.58991626  0.53658536  0.40494777
   0.30427030  0.55017522  0.53050258
   0.65756219  0.56585661  0.39514417
   0.47460655  0.66988013  0.50304742
   0.48728434  0.46288790  0.57178749
   0.43336342  0.63840343  0.56350805
Direct configuration=    26
   0.40516569  0.50102624  0.62518522
   0.51301277  0.46742894  0.44307911
   0.50481271  0.58850760  0.66092335
   0.50018487  0.37101130  0.33743388
   0.58134002  0.48346050  0.64070539
   0.45140510  0.69550022  0.65673384
   0.41986296  0.51481721  0.48770110
   0.56529823  0.43980707  0.53913983
   0.49998025  0.26412112  0.34108371
   0.42399999  0.44194631  0.53128030
   0.51678833  0.39065073  0.53180758
   0.52279398  0.33620617  0.61152404
   0.58720542  0.53200059  0.40901818
   0.31379684  0.54863707  0.53228457
   0.65619553  0.56588740  0.39500244
   0.47340705  0.66677848  0.50586753
   0.48818878  0.46742518  0.57542805
   0.43436114  0.63354522  0.56438331
Direct configuration=    27
   0.40460842  0.50284542  0.62426936
   0.51264556  0.46828490  0.44345877
   0.50375246  0.58787767  0.65989620
   0.50032920  0.37128733  0.33765478
   0.58055403  0.48300860  0.64000807
   0.45118290  0.69550538  0.65621909
   0.41913581  0.51541165  0.48889127
   0.56616252  0.43925913  0.53871630
   0.49998250  0.26393820  0.34116094
   0.42524757  0.44134336  0.53080570
   0.51609820  0.39113530  0.53066253
   0.52271039  0.33730267  0.61149399
   0.58651684  0.53085392  0.41003621
   0.31650248  0.54818295  0.53273889
   0.65593572  0.56591838  0.39496245
   0.47333655  0.66614539  0.50628732
   0.48871673  0.46842833  0.57624382
   0.43438178  0.63202880  0.56507571
Direct configuration=    28
   0.40293663  0.50830294  0.62152178
   0.51154392  0.47085277  0.44459776
   0.50057169  0.58598788  0.65681472
   0.50076219  0.37211541  0.33831748
   0.57819606  0.48165291  0.63791613
   0.45051632  0.69552088  0.65467485
   0.41695436  0.51719497  0.49246179
   0.56875539  0.43761530  0.53744570
   0.49998926  0.26338944  0.34139265
   0.42899031  0.43953451  0.52938191
   0.51402782  0.39258902  0.52722738
   0.52245962  0.34059217  0.61140382
   0.58445110  0.52741389  0.41309030
   0.32461938  0.54682057  0.53410187
   0.65515630  0.56601130  0.39484251
   0.47312506  0.66424611  0.50754670
   0.49030060  0.47143776  0.57869115
   0.43444367  0.62747954  0.56715292
Direct configuration=    29
   0.39959303  0.51921800  0.61602663
   0.50934066  0.47598851  0.44687572
   0.49421014  0.58220831  0.65065177
   0.50162816  0.37377157  0.33964286
   0.57348010  0.47894152  0.63373225
   0.44918315  0.69555188  0.65158638
   0.41259146  0.52076160  0.49960282
   0.57394113  0.43432765  0.53490450
   0.50000278  0.26229191  0.34185605
   0.43647578  0.43591681  0.52653433
   0.50988704  0.39549645  0.52035709
   0.52195808  0.34717116  0.61122349
   0.58031963  0.52053385  0.41919847
   0.34085318  0.54409582  0.53682783
   0.65359745  0.56619715  0.39460261
   0.47270207  0.66044756  0.51006547
   0.49346834  0.47745663  0.58358580
   0.43456747  0.61838101  0.57130734
Direct configuration=    30
   0.40111359  0.51425420  0.61852564
   0.51034263  0.47365295  0.44583978
   0.49710316  0.58392713  0.65345448
   0.50123435  0.37301840  0.33904012
   0.57562476  0.48017457  0.63563494
   0.44978943  0.69553778  0.65299091
   0.41457556  0.51913962  0.49635532
   0.57158283  0.43582276  0.53606015
   0.49999663  0.26279103  0.34164531
   0.43307164  0.43756202  0.52782931
   0.51177013  0.39417425  0.52348147
   0.52218616  0.34417926  0.61130550
   0.58219849  0.52366266  0.41642068
   0.33347059  0.54533494  0.53558815
   0.65430636  0.56611263  0.39471171
   0.47289443  0.66217501  0.50892002
   0.49202776  0.47471945  0.58135988
   0.43451117  0.62251872  0.56941805
Direct configuration=    31
   0.40070511  0.51558768  0.61785430
   0.51007346  0.47428038  0.44611808
   0.49632598  0.58346539  0.65270156
   0.50134014  0.37322073  0.33920204
   0.57504862  0.47984332  0.63512380
   0.44962656  0.69554157  0.65261360
   0.41404255  0.51957535  0.49722773
   0.57221636  0.43542111  0.53574970
   0.49999829  0.26265694  0.34170192
   0.43398613  0.43712005  0.52748143
   0.51126425  0.39452944  0.52264214
   0.52212489  0.34498300  0.61128347
   0.58169375  0.52282213  0.41716691
   0.33545385  0.54500206  0.53592118
   0.65411592  0.56613533  0.39468240
   0.47284276  0.66171095  0.50922773
   0.49241476  0.47545477  0.58195785
   0.43452629  0.62140716  0.56992559
Direct configuration=    32
   0.39973965  0.51702555  0.61675724
   0.50788907  0.47454027  0.44678103
   0.49619807  0.58240339  0.65174040
   0.50162444  0.37369941  0.33962367
   0.57496314  0.47947183  0.63515031
   0.44919886  0.69581119  0.65181683
   0.41255009  0.51979219  0.49910519
   0.57347144  0.43593929  0.53537483
   0.50000272  0.26246997  0.34178042
   0.43586196  0.43753069  0.52724420
   0.50904299  0.39399541  0.52239100
   0.52198961  0.34701564  0.61047040
   0.58338082  0.52285000  0.41759531
   0.33939993  0.54435851  0.53591165
   0.65309521  0.56569990  0.39489048
   0.47270285  0.66098311  0.50980602
   0.49236221  0.47573637  0.58166248
   0.43432663  0.61943467  0.57047995
Direct configuration=    33
   0.39824802  0.51924704  0.61506229
   0.50451421  0.47494179  0.44780529
   0.49600045  0.58076261  0.65025542
   0.50206367  0.37443895  0.34027507
   0.57483108  0.47889789  0.63519128
   0.44853805  0.69622774  0.65058583
   0.41024426  0.52012721  0.50200584
   0.57541052  0.43673988  0.53479566
   0.50000956  0.26218110  0.34190171
   0.43876011  0.43816512  0.52687769
   0.50561116  0.39317034  0.52200300
   0.52178059  0.35015603  0.60921422
   0.58598732  0.52289306  0.41825720
   0.34549658  0.54336421  0.53589694
   0.65151822  0.56502716  0.39521195
   0.47248669  0.65985861  0.51069946
   0.49228103  0.47617145  0.58120614
   0.43401814  0.61638719  0.57133643
Direct configuration=    34
   0.39780116  0.51855430  0.61669493
   0.50339308  0.47543228  0.44739853
   0.49733794  0.57997519  0.65029507
   0.50231834  0.37481275  0.34074269
   0.57560403  0.47867411  0.63598048
   0.44829694  0.69636191  0.64987221
   0.41032532  0.51898722  0.50177006
   0.57470838  0.43738365  0.53425522
   0.50001365  0.26215856  0.34192193
   0.43891889  0.43970636  0.52715478
   0.50519462  0.39247709  0.52338579
   0.52173125  0.35207186  0.60798744
   0.58728630  0.52280535  0.41861138
   0.34612730  0.54406752  0.53492184
   0.65101981  0.56475692  0.39536995
   0.47224819  0.65949963  0.51124308
   0.49188721  0.47555189  0.58011566
   0.43358725  0.61548078  0.57086039
Direct configuration=    35
   0.39646057  0.51647607  0.62159286
   0.50002970  0.47690374  0.44617824
   0.50135040  0.57761294  0.65041403
   0.50308235  0.37593416  0.34214555
   0.57792288  0.47800276  0.63834808
   0.44757358  0.69676445  0.64773133
   0.41056851  0.51556724  0.50106270
   0.57260197  0.43931496  0.53263391
   0.50002594  0.26209095  0.34198257
   0.43939525  0.44433005  0.52798603
   0.50394498  0.39039737  0.52753416
   0.52158321  0.35781933  0.60430711
   0.59118324  0.52254224  0.41967392
   0.34801946  0.54617743  0.53199655
   0.64952457  0.56394622  0.39584394
   0.47153270  0.65842272  0.51287393
   0.49070577  0.47369320  0.57684422
   0.43229457  0.61276154  0.56943228
Direct configuration=    36
   0.39594394  0.51521020  0.62309273
   0.49984860  0.47765361  0.44495368
   0.50322476  0.57666833  0.65033425
   0.50354728  0.37651063  0.34303898
   0.57877633  0.47696088  0.63890540
   0.44743544  0.69644122  0.64618881
   0.41051724  0.51416698  0.50017298
   0.57082802  0.44082624  0.53202816
   0.50004011  0.26216566  0.34198494
   0.43790622  0.44498897  0.52769224
   0.50309580  0.39069808  0.52842652
   0.52206340  0.36085057  0.60353721
   0.59076064  0.52057865  0.42141418
   0.34883390  0.54799391  0.53153992
   0.65032755  0.56459076  0.39545956
   0.47120517  0.65810588  0.51393261
   0.49226432  0.47349356  0.57707667
   0.43118097  0.61085326  0.56880258
Direct configuration=    37
   0.39486664  0.51257058  0.62622031
   0.49947095  0.47921725  0.44240017
   0.50713325  0.57469857  0.65016790
   0.50451675  0.37771270  0.34490199
   0.58055596  0.47478832  0.64006754
   0.44714737  0.69576722  0.64297229
   0.41041034  0.51124710  0.49831768
   0.56712892  0.44397760  0.53076503
   0.50006967  0.26232144  0.34198989
   0.43480124  0.44636298  0.52707960
   0.50132504  0.39132514  0.53028730
   0.52306470  0.36717142  0.60193177
   0.58987940  0.51648410  0.42504305
   0.35053218  0.55178168  0.53058773
   0.65200196  0.56593477  0.39465803
   0.47052218  0.65744519  0.51614021
   0.49551426  0.47307726  0.57756139
   0.42885883  0.60687404  0.56748951
Direct configuration=    38
   0.39476678  0.51173319  0.62638729
   0.49928804  0.47951011  0.44162729
   0.50827147  0.57406209  0.64995172
   0.50493685  0.37811689  0.34565479
   0.58120689  0.47358826  0.64035802
   0.44718439  0.69524561  0.64146753
   0.40945984  0.51135293  0.49761224
   0.56575763  0.44539737  0.53024196
   0.50008587  0.26244560  0.34198317
   0.43438325  0.44573667  0.52748540
   0.50002768  0.39231614  0.52951808
   0.52407241  0.36949677  0.60264093
   0.59009965  0.51511980  0.42641319
   0.35170299  0.55326689  0.53071564
   0.65217969  0.56606208  0.39458873
   0.47019584  0.65722557  0.51734657
   0.49639558  0.47298176  0.57764095
   0.42778481  0.60509964  0.56694791
Direct configuration=    39
   0.39446721  0.50922104  0.62688824
   0.49873929  0.48038870  0.43930862
   0.51168614  0.57215264  0.64930316
   0.50619715  0.37932944  0.34791320
   0.58315967  0.46998809  0.64122943
   0.44729545  0.69368077  0.63695326
   0.40660832  0.51167041  0.49549590
   0.56164375  0.44965666  0.52867274
   0.50013446  0.26281807  0.34196299
   0.43312929  0.44385773  0.52870279
   0.49613560  0.39528916  0.52721043
   0.52709555  0.37647284  0.60476842
   0.59076041  0.51102690  0.43052363
   0.35521540  0.55772251  0.53109939
   0.65271285  0.56644399  0.39438085
   0.46921683  0.65656671  0.52096565
   0.49903955  0.47269527  0.57787962
   0.42456276  0.59977646  0.56532311
Direct configuration=    40
   0.39386805  0.50419673  0.62789013
   0.49764180  0.48214588  0.43467129
   0.51851549  0.56833373  0.64800604
   0.50871775  0.38175454  0.35243000
   0.58706524  0.46278776  0.64297227
   0.44751757  0.69055110  0.62792472
   0.40090528  0.51230536  0.49126322
   0.55341599  0.45817524  0.52553429
   0.50023163  0.26356302  0.34192264
   0.43062137  0.44009985  0.53113757
   0.48835143  0.40123518  0.52259512
   0.53314182  0.39042496  0.60902338
   0.59208192  0.50284109  0.43874450
   0.36224022  0.56663375  0.53186688
   0.65377918  0.56720781  0.39396507
   0.46725880  0.65524898  0.52820383
   0.50432749  0.47212229  0.57835696
   0.41811864  0.58913010  0.56207350
Direct configuration=    41
   0.39438119  0.50849975  0.62703207
   0.49858173  0.48064096  0.43864289
   0.51266656  0.57160440  0.64911694
   0.50655901  0.37967759  0.34856163
   0.58372035  0.46895442  0.64147964
   0.44732734  0.69323148  0.63565713
   0.40578959  0.51176156  0.49488826
   0.56046258  0.45087958  0.52822218
   0.50014841  0.26292502  0.34195720
   0.43276925  0.44331825  0.52905233
   0.49501811  0.39614276  0.52654786
   0.52796355  0.37847580  0.60537926
   0.59095012  0.50985175  0.43170381
   0.35622388  0.55900180  0.53120957
   0.65286593  0.56655364  0.39432116
   0.46893574  0.65637754  0.52200476
   0.49979868  0.47261301  0.57794815
   0.42363764  0.59824807  0.56485659
Direct configuration=    42
   0.39505591  0.50791129  0.62524119
   0.49757920  0.48076242  0.43864220
   0.51309419  0.57120501  0.64854950
   0.50710292  0.37973370  0.34930383
   0.58438851  0.46735595  0.64173658
   0.44770051  0.69221604  0.63376782
   0.40447626  0.51167200  0.49489045
   0.56048824  0.45211518  0.52673412
   0.50017979  0.26322390  0.34194169
   0.43237264  0.44350121  0.52960609
   0.49454775  0.39633118  0.52617431
   0.52920508  0.38131029  0.60529524
   0.59246297  0.50913977  0.43305283
   0.35745412  0.56058348  0.53205575
   0.65196510  0.56566173  0.39493582