       N       E                     dE             d eps       ncg     rms          rms(c)
DAV:   1     0.435692681067E+03    0.43569E+03   -0.17281E+04   128   0.552E+02
DAV:   2     0.983606145848E+02   -0.33733E+03   -0.32572E+03   144   0.167E+02
DAV:   3    -0.407169904918E+02   -0.13908E+03   -0.13671E+03   144   0.825E+01
DAV:   4    -0.665525517408E+02   -0.25836E+02   -0.24608E+02   144   0.362E+01
DAV:   5    -0.688985920410E+02   -0.23460E+01   -0.21233E+01   160   0.116E+01    0.320E+01
DAV:   6    -0.678471014683E+02    0.10515E+01   -0.40693E+02   160   0.100E+02    0.276E+01
DAV:   7    -0.376896854364E+02    0.30157E+02   -0.12144E+02   144   0.411E+01    0.136E+01
DAV:   8    -0.379838435500E+02   -0.29416E+00   -0.44598E+01   160   0.190E+01    0.118E+01
DAV:   9    -0.367887975453E+02    0.11950E+01   -0.17263E+01   136   0.158E+01    0.813E+00
DAV:  10    -0.366052160151E+02    0.18358E+00   -0.14230E+01   144   0.946E+00    0.664E+00
DAV:  11    -0.364876384097E+02    0.11758E+00   -0.76563E+00   136   0.967E+00    0.704E+00
DAV:  12    -0.358598069551E+02    0.62783E+00   -0.40290E+00   144   0.644E+00    0.269E+00
DAV:  13    -0.358271984543E+02    0.32609E-01   -0.57262E-01   152   0.202E+00    0.149E+00
DAV:  14    -0.358215440567E+02    0.56544E-02   -0.26097E-01   160   0.159E+00    0.143E+00
DAV:  15    -0.358043085128E+02    0.17236E-01   -0.24077E-01   144   0.172E+00    0.810E-01
DAV:  16    -0.358001554925E+02    0.41530E-02   -0.93611E-02   144   0.730E-01    0.398E-01
DAV:  17    -0.358029958539E+02   -0.28404E-02   -0.34139E-02   144   0.362E-01    0.330E-01
DAV:  18    -0.358053768068E+02   -0.23810E-02   -0.11698E-02   136   0.208E-01    0.174E-01
DAV:  19    -0.358091008117E+02   -0.37240E-02   -0.10375E-02   128   0.150E-01    0.173E-01
DAV:  20    -0.358115912351E+02   -0.24904E-02   -0.42272E-03   136   0.153E-01    0.958E-02
DAV:  21    -0.358167466302E+02   -0.51554E-02   -0.22463E-03   112   0.130E-01    0.113E-01
DAV:  22    -0.358211155718E+02   -0.43689E-02   -0.15754E-03   128   0.134E-01    0.373E-02
DAV:  23    -0.358238608604E+02   -0.27453E-02   -0.44249E-04    88   0.606E-02    0.352E-02
DAV:  24    -0.358262691882E+02   -0.24083E-02   -0.32792E-04    88   0.588E-02    0.325E-02
DAV:  25    -0.358277685656E+02   -0.14994E-02   -0.15960E-04    88   0.288E-02    0.316E-02
DAV:  26    -0.358289455952E+02   -0.11770E-02   -0.91601E-05    80   0.365E-02    0.101E-02
DAV:  27    -0.358297190956E+02   -0.77350E-03   -0.60211E-05    80   0.182E-02    0.671E-03
DAV:  28    -0.358302755862E+02   -0.55649E-03   -0.40820E-05    80   0.151E-02    0.764E-03
DAV:  29    -0.358304872020E+02   -0.21162E-03   -0.17322E-05    56   0.152E-02    0.417E-03
DAV:  30    -0.358306306592E+02   -0.14346E-03   -0.19310E-05    56   0.855E-03    0.142E-03
DAV:  31    -0.358306915689E+02   -0.60910E-04   -0.59574E-06    72   0.598E-03
   1 F= -.35830692E+02 E0= -.35755474E+02  d E =-.358307E+02
       N       E                     dE             d eps       ncg     rms          rms(c)
DAV:   1     0.686542071905E+02    0.10448E+03   -0.91211E+03   128   0.447E+02    0.267E+01
DAV:   2    -0.104226930088E+03   -0.17288E+03   -0.19980E+03   128   0.133E+02    0.525E+01
DAV:   3    -0.655065124449E+02    0.38720E+02   -0.50236E+02   176   0.126E+02    0.217E+01
DAV:   4    -0.576520195708E+02    0.78545E+01   -0.59502E+01   152   0.226E+01    0.144E+01
DAV:   5    -0.555379874313E+02    0.21140E+01   -0.15564E+01   160   0.138E+01    0.144E+01
DAV:   6    -0.552572844404E+02    0.28070E+00   -0.19133E+01   144   0.118E+01    0.230E+01
DAV:   7    -0.530276878826E+02    0.22296E+01   -0.30923E+01   152   0.934E+00    0.885E+00
DAV:   8    -0.534429765049E+02   -0.41529E+00   -0.21438E+01   144   0.901E+00    0.104E+01
DAV:   9    -0.523560739975E+02    0.10869E+01   -0.54645E+00   144   0.481E+00    0.355E+00
DAV:  10    -0.534738553523E+02   -0.11178E+01   -0.11534E+01   152   0.399E+00    0.184E+01
DAV:  11    -0.522050727945E+02    0.12688E+01   -0.45501E+00   144   0.387E+00    0.223E+00
DAV:  12    -0.522248124621E+02   -0.19740E-01   -0.29768E-01   152   0.158E+00    0.105E+00
DAV:  13    -0.522406206903E+02   -0.15808E-01   -0.91316E-02   136   0.866E-01    0.721E-01
DAV:  14    -0.522494747277E+02   -0.88540E-02   -0.53866E-02   152   0.589E-01    0.617E-01
DAV:  15    -0.522513484947E+02   -0.18738E-02   -0.49228E-02   136   0.298E-01    0.727E-01
DAV:  16    -0.522550247822E+02   -0.36763E-02   -0.32534E-02   136   0.239E-01    0.386E-01
DAV:  17    -0.522555689448E+02   -0.54416E-03   -0.98072E-03   144   0.161E-01    0.463E-01
DAV:  18    -0.522567183104E+02   -0.11494E-02   -0.39582E-03   128   0.106E-01    0.154E-01
DAV:  19    -0.522567690394E+02   -0.50729E-04   -0.17766E-04    80   0.519E-02
   2 F= -.52256769E+02 E0= -.52165876E+02  d E =-.164261E+02
       N       E                     dE             d eps       ncg     rms          rms(c)
DAV:   1    -0.525599777620E+02   -0.30326E+00   -0.68259E+01   112   0.761E+01    0.322E+00
DAV:   2    -0.543003374745E+02   -0.17404E+01   -0.17150E+01   136   0.144E+01    0.754E+00
DAV:   3    -0.531547357557E+02    0.11456E+01   -0.58434E+00   144   0.593E+00    0.202E+00
DAV:   4    -0.535057363039E+02   -0.35100E+00   -0.33316E+00   152   0.288E+00    0.707E+00
DAV:   5    -0.531281607084E+02    0.37758E+00   -0.91722E-01   152   0.191E+00    0.104E+00
DAV:   6    -0.531803644145E+02   -0.52204E-01   -0.13175E-01   152   0.116E+00    0.109E+00
DAV:   7    -0.531754055261E+02    0.49589E-02   -0.15083E-01   160   0.105E+00    0.653E-01
DAV:   8    -0.531734759242E+02    0.19296E-02   -0.52262E-02   152   0.552E-01    0.244E-01
DAV:   9    -0.531749798154E+02   -0.15039E-02   -0.11427E-02   152   0.246E-01    0.222E-01
DAV:  10    -0.531750485882E+02   -0.68773E-04   -0.48484E-03   144   0.163E-01    0.921E-02
DAV:  11    -0.531753737416E+02   -0.32515E-03   -0.97900E-04   120   0.889E-02    0.680E-02
DAV:  12    -0.531756012642E+02   -0.22752E-03   -0.12835E-04    72   0.550E-02    0.499E-02
DAV:  13    -0.531757375130E+02   -0.13625E-03   -0.10212E-04    72   0.340E-02    0.195E-02
DAV:  14    -0.531758904792E+02   -0.15297E-03   -0.55249E-05    72   0.261E-02    0.177E-02
DAV:  15    -0.531760414755E+02   -0.15100E-03   -0.47578E-05    72   0.213E-02    0.733E-03
DAV:  16    -0.531761333224E+02   -0.91847E-04   -0.25689E-05    72   0.155E-02
   3 F= -.53176133E+02 E0= -.53091413E+02  d E =-.173454E+02
       N       E                     dE             d eps       ncg     rms          rms(c)
DAV:   1    -0.533722772158E+02   -0.19624E+00   -0.38008E+01   112   0.583E+01    0.235E+00
DAV:   2    -0.543790411848E+02   -0.10068E+01   -0.10125E+01   136   0.110E+01    0.593E+00
DAV:   3    -0.537454059819E+02    0.63364E+00   -0.38690E+00   144   0.439E+00    0.273E+00
DAV:   4    -0.538825724851E+02   -0.13717E+00   -0.20529E+00   152   0.205E+00    0.527E+00
DAV:   5    -0.537166729131E+02    0.16590E+00   -0.66283E-01   152   0.154E+00    0.790E-01
DAV:   6    -0.537498675172E+02   -0.33195E-01   -0.11442E-01   160   0.973E-01    0.854E-01
DAV:   7    -0.537484402524E+02    0.14273E-02   -0.14506E-01   144   0.985E-01    0.604E-01
DAV:   8    -0.537459404754E+02    0.24998E-02   -0.37699E-02   152   0.540E-01    0.240E-01
DAV:   9    -0.537466456514E+02   -0.70518E-03   -0.44857E-03   152   0.192E-01    0.118E-01
DAV:  10    -0.537468266378E+02   -0.18099E-03   -0.17630E-03   128   0.118E-01    0.788E-02
DAV:  11    -0.537470464863E+02   -0.21985E-03   -0.52164E-04    96   0.807E-02    0.478E-02
DAV:  12    -0.537471717649E+02   -0.12528E-03   -0.13759E-04    72   0.468E-02    0.353E-02
DAV:  13    -0.537472191310E+02   -0.47366E-04   -0.45093E-05    72   0.292E-02
   4 F= -.53747219E+02 E0= -.53669173E+02  d E =-.179165E+02
       N       E                     dE             d eps       ncg     rms          rms(c)
DAV:   1    -0.370638138716E+02    0.16683E+02   -0.11670E+03   104   0.287E+02    0.115E+01
DAV:   2    -0.695000584451E+02   -0.32436E+02   -0.31141E+02   128   0.695E+01    0.331E+01
DAV:   3    -0.612658769849E+02    0.82342E+01   -0.12301E+02   152   0.430E+01    0.146E+01
DAV:   4    -0.574449353174E+02    0.38209E+01   -0.16549E+01   160   0.127E+01    0.816E+00
DAV:   5    -0.568719698501E+02    0.57297E+00   -0.77447E+00   144   0.827E+00    0.716E+00
DAV:   6    -0.564170538446E+02    0.45492E+00   -0.34962E+00   152   0.588E+00    0.469E+00
DAV:   7    -0.564367848069E+02   -0.19731E-01   -0.30446E+00   144   0.443E+00    0.724E+00
DAV:   8    -0.561931499076E+02    0.24363E+00   -0.18231E+00   144   0.336E+00    0.156E+00
DAV:   9    -0.562003151710E+02   -0.71653E-02   -0.37565E-01   160   0.146E+00    0.107E+00
DAV:  10    -0.562060886232E+02   -0.57735E-02   -0.31936E-01   160   0.977E-01    0.136E+00
DAV:  11    -0.561933942505E+02    0.12694E-01   -0.14767E-01   144   0.570E-01    0.397E-01
DAV:  12    -0.561972213024E+02   -0.38271E-02   -0.35239E-02   144   0.316E-01    0.384E-01
DAV:  13    -0.561972874420E+02   -0.66140E-04   -0.13666E-02   136   0.214E-01    0.157E-01
DAV:  14    -0.561989375727E+02   -0.16501E-02   -0.17642E-03   144   0.127E-01    0.157E-01
DAV:  15    -0.561994125981E+02   -0.47503E-03   -0.95451E-04   112   0.739E-02    0.153E-01
DAV:  16    -0.562001030595E+02   -0.69046E-03   -0.91250E-04   120   0.777E-02    0.417E-02
DAV:  17    -0.562004119556E+02   -0.30890E-03   -0.10363E-04    72   0.362E-02    0.235E-02
DAV:  18    -0.562009436481E+02   -0.53169E-03   -0.10531E-04    80   0.297E-02    0.217E-02
DAV:  19    -0.562013930312E+02   -0.44938E-03   -0.84616E-05    72   0.226E-02    0.119E-02
DAV:  20    -0.562017281138E+02   -0.33508E-03   -0.74308E-05    80   0.201E-02    0.119E-02
DAV:  21    -0.562018976210E+02   -0.16951E-03   -0.24154E-05    72   0.145E-02    0.894E-03
DAV:  22    -0.562020480161E+02   -0.15040E-03   -0.25242E-05    72   0.115E-02    0.384E-03
DAV:  23    -0.562021641836E+02   -0.11617E-03   -0.20199E-05    72   0.102E-02    0.254E-03
DAV:  24    -0.562022269718E+02   -0.62788E-04   -0.16054E-05    72   0.854E-03
   5 F= -.56202227E+02 E0= -.56120391E+02  d E =-.203715E+02
       N       E                     dE             d eps       ncg     rms          rms(c)
DAV:   1    -0.379387811187E+02    0.18263E+02   -0.12613E+03   120   0.275E+02    0.107E+01
DAV:   2    -0.613293032762E+02   -0.23391E+02   -0.21355E+02    96   0.700E+01    0.242E+01
DAV:   3    -0.581273415136E+02    0.32020E+01   -0.46786E+01   160   0.326E+01    0.932E+00
DAV:   4    -0.575015560358E+02    0.62579E+00   -0.11641E+01   144   0.130E+01    0.594E+00
DAV:   5    -0.569500738638E+02    0.55148E+00   -0.48373E+00   144   0.883E+00    0.476E+00
DAV:   6    -0.568625883613E+02    0.87486E-01   -0.32884E+00   144   0.636E+00    0.273E+00
DAV:   7    -0.568086361217E+02    0.53952E-01   -0.79653E-01   152   0.254E+00    0.180E+00
DAV:   8    -0.567955922412E+02    0.13044E-01   -0.48984E-01   152   0.151E+00    0.101E+00
DAV:   9    -0.567936970155E+02    0.18952E-02   -0.25711E-01   160   0.874E-01    0.825E-01
DAV:  10    -0.567888546990E+02    0.48423E-02   -0.95949E-02   152   0.612E-01    0.451E-01
DAV:  11    -0.567905077027E+02   -0.16530E-02   -0.23859E-02   144   0.374E-01    0.205E-01
DAV:  12    -0.567915505814E+02   -0.10429E-02   -0.12125E-02   144   0.197E-01    0.131E-01
DAV:  13    -0.567916716845E+02   -0.12110E-03   -0.35815E-03   136   0.122E-01    0.765E-02
DAV:  14    -0.567923213070E+02   -0.64962E-03   -0.48965E-04   112   0.684E-02    0.444E-02
DAV:  15    -0.567928201864E+02   -0.49888E-03   -0.15568E-04    80   0.455E-02    0.210E-02
DAV:  16    -0.567933755434E+02   -0.55536E-03   -0.13098E-04    80   0.311E-02    0.144E-02
DAV:  17    -0.567939552013E+02   -0.57966E-03   -0.10417E-04    80   0.268E-02    0.967E-03
DAV:  18    -0.567943743665E+02   -0.41917E-03   -0.59439E-05    72   0.182E-02    0.100E-02
DAV:  19    -0.567946768566E+02   -0.30249E-03   -0.62217E-05    80   0.178E-02    0.392E-03
DAV:  20    -0.567948048415E+02   -0.12798E-03   -0.17525E-05    72   0.111E-02    0.272E-03
DAV:  21    -0.567949069883E+02   -0.10215E-03   -0.19747E-05    72   0.872E-03    0.198E-03
DAV:  22    -0.567949593911E+02   -0.52403E-04   -0.87910E-06    72   0.754E-03
   6 F= -.56794959E+02 E0= -.56743003E+02  d E =-.209643E+02
       N       E                     dE             d eps       ncg     rms          rms(c)
DAV:   1    -0.510727081577E+02    0.57222E+01   -0.45938E+02   120   0.182E+02    0.704E+00
DAV:   2    -0.649203224797E+02   -0.13848E+02   -0.94442E+01   128   0.422E+01    0.339E+01
DAV:   3    -0.579919316279E+02    0.69284E+01   -0.39467E+01   152   0.249E+01    0.948E+00
DAV:   4    -0.572616784599E+02    0.73025E+00   -0.90913E+00   152   0.100E+01    0.494E+00
DAV:   5    -0.570565915254E+02    0.20509E+00   -0.25360E+00   144   0.488E+00    0.413E+00
DAV:   6    -0.569884618743E+02    0.68130E-01   -0.10137E+00   144   0.295E+00    0.252E+00
DAV:   7    -0.569520871557E+02    0.36375E-01   -0.64735E-01   152   0.197E+00    0.108E+00
DAV:   8    -0.569533831909E+02   -0.12960E-02   -0.17621E-01   160   0.930E-01    0.590E-01
DAV:   9    -0.569544722044E+02   -0.10890E-02   -0.83527E-02   152   0.489E-01    0.476E-01
DAV:  10    -0.569547157937E+02   -0.24359E-03   -0.33721E-02   152   0.352E-01    0.420E-01
DAV:  11    -0.569548070484E+02   -0.91255E-04   -0.11817E-02   144   0.237E-01    0.154E-01
DAV:  12    -0.569553123431E+02   -0.50529E-03   -0.41574E-03   128   0.116E-01    0.158E-01
DAV:  13    -0.569554013975E+02   -0.89054E-04   -0.16127E-03   104   0.754E-02    0.710E-02
DAV:  14    -0.569557320150E+02   -0.33062E-03   -0.24036E-04    72   0.568E-02    0.350E-02
DAV:  15    -0.569559956880E+02   -0.26367E-03   -0.12612E-04    72   0.352E-02    0.160E-02
DAV:  16    -0.569562148851E+02   -0.21920E-03   -0.65402E-05    72   0.285E-02    0.116E-02
DAV:  17    -0.569565092666E+02   -0.29438E-03   -0.58952E-05    72   0.205E-02    0.758E-03
DAV:  18    -0.569566975974E+02   -0.18833E-03   -0.37135E-05    72   0.158E-02    0.572E-03
DAV:  19    -0.569568750899E+02   -0.17749E-03   -0.36890E-05    72   0.140E-02    0.316E-03
DAV:  20    -0.569569704435E+02   -0.95354E-04   -0.27653E-05    72   0.107E-02
   7 F= -.56956970E+02 E0= -.56878034E+02  d E =-.211263E+02
       N       E                     dE             d eps       ncg     rms          rms(c)
DAV:   1    -0.390829827361E+02    0.17874E+02   -0.24799E+03   112   0.292E+02    0.195E+01
DAV:   2    -0.112070402899E+03   -0.72987E+02   -0.77184E+02   144   0.692E+01    0.506E+01
DAV:   3    -0.643845410377E+02    0.47686E+02   -0.16208E+02   144   0.718E+01    0.146E+01
DAV:   4    -0.630157733218E+02    0.13688E+01   -0.31882E+01   160   0.148E+01    0.853E+00
DAV:   5    -0.629720754202E+02    0.43698E-01   -0.13051E+01   144   0.911E+00    0.780E+00
DAV:   6    -0.626632796872E+02    0.30880E+00   -0.27517E+00   144   0.390E+00    0.607E+00
DAV:   7    -0.629849835725E+02   -0.32170E+00   -0.53600E+00   160   0.506E+00    0.113E+01
DAV:   8    -0.626689406693E+02    0.31604E+00   -0.70195E+00   152   0.431E+00    0.615E+00
DAV:   9    -0.625655731242E+02    0.10337E+00   -0.33108E+00   152   0.348E+00    0.299E+00
DAV:  10    -0.625097765622E+02    0.55797E-01   -0.48094E-01   152   0.130E+00    0.836E-01
DAV:  11    -0.625099826172E+02   -0.20606E-03   -0.12432E-01   152   0.597E-01    0.587E-01
DAV:  12    -0.625136655098E+02   -0.36829E-02   -0.44141E-02   144   0.403E-01    0.715E-01
DAV:  13    -0.625161082390E+02   -0.24427E-02   -0.10431E-02   160   0.223E-01    0.844E-01
DAV:  14    -0.625157661036E+02    0.34214E-03   -0.16068E-02   144   0.243E-01    0.178E-01
DAV:  15    -0.625174930419E+02   -0.17269E-02   -0.15402E-03   136   0.129E-01    0.961E-02
DAV:  16    -0.625181022442E+02   -0.60920E-03   -0.50136E-04   104   0.625E-02    0.440E-02
DAV:  17    -0.625187578039E+02   -0.65556E-03   -0.18477E-04    80   0.431E-02    0.237E-02
DAV:  18    -0.625193572854E+02   -0.59948E-03   -0.13245E-04    80   0.294E-02    0.163E-02
DAV:  19    -0.625198719290E+02   -0.51464E-03   -0.90451E-05    80   0.220E-02    0.963E-03
DAV:  20    -0.625201678372E+02   -0.29591E-03   -0.54777E-05    80   0.150E-02    0.878E-03
DAV:  21    -0.625204090526E+02   -0.24122E-03   -0.28302E-05    72   0.112E-02    0.936E-03
DAV:  22    -0.625205626175E+02   -0.15356E-03   -0.26482E-05    72   0.924E-03    0.515E-03
DAV:  23    -0.625206186580E+02   -0.56040E-04   -0.11806E-05    72   0.699E-03
   8 F= -.62520619E+02 E0= -.62448635E+02  d E =-.556365E+01
       N       E                     dE             d eps       ncg     rms          rms(c)
DAV:   1    -0.589146289065E+02    0.36059E+01   -0.28923E+02   120   0.124E+02    0.516E+00
DAV:   2    -0.630285026885E+02   -0.41139E+01   -0.43625E+01   104   0.290E+01    0.531E+00
DAV:   3    -0.643297818370E+02   -0.13013E+01   -0.17126E+01   152   0.955E+00    0.128E+01
DAV:   4    -0.632803493627E+02    0.10494E+01   -0.81893E+00   152   0.695E+00    0.564E+00
DAV:   5    -0.629529909394E+02    0.32736E+00   -0.27564E+00   152   0.302E+00    0.221E+00
DAV:   6    -0.629323537573E+02    0.20637E-01   -0.21589E-01   152   0.127E+00    0.139E+00
DAV:   7    -0.629587820828E+02   -0.26428E-01   -0.30259E-01   160   0.119E+00    0.177E+00
DAV:   8    -0.629346159065E+02    0.24166E-01   -0.17948E-01   152   0.101E+00    0.675E-01
DAV:   9    -0.629378597853E+02   -0.32439E-02   -0.37382E-02   152   0.502E-01    0.347E-01
DAV:  10    -0.629385813916E+02   -0.72161E-03   -0.86005E-03   152   0.233E-01    0.232E-01
DAV:  11    -0.629392360147E+02   -0.65462E-03   -0.13396E-03   128   0.110E-01    0.174E-01
DAV:  12    -0.629395988143E+02   -0.36280E-03   -0.71511E-04   112   0.765E-02    0.884E-02
DAV:  13    -0.629397064414E+02   -0.10763E-03   -0.18673E-04    72   0.505E-02    0.441E-02
DAV:  14    -0.629398150717E+02   -0.10863E-03   -0.69314E-05    72   0.305E-02    0.234E-02
DAV:  15    -0.629399461890E+02   -0.13112E-03   -0.45381E-05    56   0.240E-02    0.116E-02
DAV:  16    -0.629400833356E+02   -0.13715E-03   -0.41704E-05    48   0.189E-02    0.673E-03
DAV:  17    -0.629401972788E+02   -0.11394E-03   -0.27797E-05    56   0.154E-02    0.567E-03
DAV:  18    -0.629403002858E+02   -0.10301E-03   -0.26461E-05    48   0.111E-02    0.503E-03
DAV:  19    -0.629403676827E+02   -0.67397E-04   -0.17231E-05    48   0.105E-02
   9 F= -.62940368E+02 E0= -.62870297E+02  d E =-.598340E+01
       N       E                     dE             d eps       ncg     rms          rms(c)
DAV:   1    -0.627791397786E+02    0.16116E+00   -0.12509E+01   112   0.309E+01    0.174E+00
DAV:   2    -0.644296520100E+02   -0.16505E+01   -0.99655E+00   144   0.849E+00    0.179E+01
DAV:   3    -0.628961470482E+02    0.15335E+01   -0.92387E+00   152   0.736E+00    0.918E-01
DAV:   4    -0.629562408166E+02   -0.60094E-01   -0.29489E-01   160   0.140E+00    0.889E-01
DAV:   5    -0.629656484073E+02   -0.94076E-02   -0.14884E-01   152   0.873E-01    0.121E+00
DAV:   6    -0.629573345483E+02    0.83139E-02   -0.10085E-01   152   0.591E-01    0.600E-01
DAV:   7    -0.629580637388E+02   -0.72919E-03   -0.28201E-02   152   0.330E-01    0.520E-01
DAV:   8    -0.629576360053E+02    0.42773E-03   -0.13694E-02   152   0.271E-01    0.206E-01
DAV:   9    -0.629572581789E+02    0.37783E-03   -0.25244E-03   152   0.141E-01    0.129E-01
DAV:  10    -0.629573306006E+02   -0.72422E-04   -0.27731E-04    96   0.692E-02
  10 F= -.62957331E+02 E0= -.62887646E+02  d E =-.600036E+01
       N       E                     dE             d eps       ncg     rms          rms(c)
DAV:   1    -0.636286245868E+02   -0.67137E+00   -0.14671E+02   120   0.102E+02    0.438E+00
DAV:   2    -0.688960958589E+02   -0.52675E+01   -0.37499E+01   120   0.254E+01    0.244E+01
DAV:   3    -0.652562286787E+02    0.36399E+01   -0.18277E+01   136   0.155E+01    0.300E+00
DAV:   4    -0.655101654363E+02   -0.25394E+00   -0.44748E+00   152   0.376E+00    0.578E+00
DAV:   5    -0.652696735364E+02    0.24049E+00   -0.24785E+00   144   0.381E+00    0.188E+00
DAV:   6    -0.652259688131E+02    0.43705E-01   -0.34887E-01   144   0.143E+00    0.944E-01
DAV:   7    -0.652311115476E+02   -0.51427E-02   -0.67656E-02   144   0.814E-01    0.799E-01
DAV:   8    -0.652299124184E+02    0.11991E-02   -0.38042E-02   160   0.516E-01    0.240E-01
DAV:   9    -0.652302065460E+02   -0.29413E-03   -0.81571E-03   160   0.248E-01    0.131E-01
DAV:  10    -0.652306512787E+02   -0.44473E-03   -0.16535E-03   136   0.106E-01    0.128E-01
DAV:  11    -0.652310238389E+02   -0.37256E-03   -0.47275E-04   104   0.676E-02    0.796E-02
DAV:  12    -0.652312138430E+02   -0.19000E-03   -0.13640E-04    72   0.508E-02    0.321E-02
DAV:  13    -0.652313330426E+02   -0.11920E-03   -0.72134E-05    72   0.289E-02    0.148E-02
DAV:  14    -0.652314508390E+02   -0.11780E-03   -0.38764E-05    72   0.225E-02    0.673E-03
DAV:  15    -0.652315765600E+02   -0.12572E-03   -0.32935E-05    72   0.163E-02    0.457E-03
DAV:  16    -0.652316564172E+02   -0.79857E-04   -0.18465E-05    72   0.122E-02
  11 F= -.65231656E+02 E0= -.65158713E+02  d E =-.227433E+01
       N       E                     dE             d eps       ncg     rms          rms(c)
DAV:   1    -0.633814329274E+02    0.18501E+01   -0.30767E+02   112   0.137E+02    0.777E+00
DAV:   2    -0.745873900844E+02   -0.11206E+02   -0.83657E+01   128   0.390E+01    0.325E+01
DAV:   3    -0.673666590497E+02    0.72207E+01   -0.30590E+01   128   0.263E+01    0.758E+00
DAV:   4    -0.668687596842E+02    0.49790E+00   -0.11464E+01   144   0.850E+00    0.601E+00
DAV:   5    -0.665552281114E+02    0.31353E+00   -0.54078E+00   136   0.721E+00    0.280E+00
DAV:   6    -0.664583113418E+02    0.96917E-01   -0.60068E-01   136   0.222E+00    0.175E+00
DAV:   7    -0.664462145103E+02    0.12097E-01   -0.28076E-01   144   0.128E+00    0.906E-01
DAV:   8    -0.664484324887E+02   -0.22180E-02   -0.15128E-01   144   0.770E-01    0.706E-01
DAV:   9    -0.664423249119E+02    0.61076E-02   -0.34337E-02   152   0.410E-01    0.185E-01
DAV:  10    -0.664456227012E+02   -0.32978E-02   -0.56097E-03   144   0.208E-01    0.195E-01
DAV:  11    -0.664460125480E+02   -0.38985E-03   -0.26889E-03   128   0.112E-01    0.103E-01
DAV:  12    -0.664465799958E+02   -0.56745E-03   -0.73198E-04   112   0.840E-02    0.401E-02
DAV:  13    -0.664469204508E+02   -0.34045E-03   -0.10715E-04    72   0.413E-02    0.184E-02
DAV:  14    -0.664471214752E+02   -0.20102E-03   -0.66129E-05    72   0.252E-02    0.112E-02
DAV:  15    -0.664473422868E+02   -0.22081E-03   -0.42424E-05    72   0.193E-02    0.736E-03
DAV:  16    -0.664476070700E+02   -0.26478E-03   -0.62864E-05    80   0.158E-02    0.614E-03
DAV:  17    -0.664477858066E+02   -0.17874E-03   -0.23081E-05    72   0.130E-02    0.322E-03
DAV:  18    -0.664478987671E+02   -0.11296E-03   -0.22269E-05    72   0.945E-03    0.287E-03
DAV:  19    -0.664479687840E+02   -0.70017E-04   -0.14911E-05    72   0.826E-03
  12 F= -.66447969E+02 E0= -.66369822E+02  d E =-.349064E+01
       N       E                     dE             d eps       ncg     rms          rms(c)
DAV:   1    -0.670595871866E+02   -0.61169E+00   -0.46290E+01   112   0.588E+01    0.307E+00
DAV:   2    -0.698342845065E+02   -0.27747E+01   -0.21625E+01   144   0.142E+01    0.192E+01
DAV:   3    -0.676681864066E+02    0.21661E+01   -0.13843E+01   144   0.104E+01    0.471E+00
DAV:   4    -0.673897875122E+02    0.27840E+00   -0.29924E+00   144   0.368E+00    0.137E+00
DAV:   5    -0.673767550217E+02    0.13032E-01   -0.19228E-01   136   0.149E+00    0.812E-01
DAV:   6    -0.673765876087E+02    0.16741E-03   -0.45949E-02   144   0.789E-01    0.505E-01
DAV:   7    -0.673757769533E+02    0.81066E-03   -0.30647E-02   144   0.485E-01    0.304E-01
DAV:   8    -0.673757367322E+02    0.40221E-04   -0.18695E-02   136   0.414E-01    0.208E-01
DAV:   9    -0.673753385312E+02    0.39820E-03   -0.53703E-03   136   0.199E-01    0.975E-02
DAV:  10    -0.673755225450E+02   -0.18401E-03   -0.57436E-04   104   0.761E-02    0.623E-02
DAV:  11    -0.673756701845E+02   -0.14764E-03   -0.21526E-04    80   0.541E-02    0.314E-02
DAV:  12    -0.673757501283E+02   -0.79944E-04   -0.85132E-05    72   0.305E-02
  13 F= -.67375750E+02 E0= -.67300467E+02  d E =-.927781E+00
       N       E                     dE             d eps       ncg     rms          rms(c)
DAV:   1    -0.662439687854E+02    0.11317E+01   -0.28887E+02   104   0.135E+02    0.749E+00
DAV:   2    -0.751628473907E+02   -0.89189E+01   -0.69075E+01   128   0.335E+01    0.298E+01
DAV:   3    -0.692637499782E+02    0.58991E+01   -0.29772E+01   144   0.242E+01    0.784E+00
DAV:   4    -0.684194241046E+02    0.84433E+00   -0.11096E+01   136   0.841E+00    0.389E+00
DAV:   5    -0.681943627862E+02    0.22506E+00   -0.14004E+00   136   0.429E+00    0.181E+00
DAV:   6    -0.681854213732E+02    0.89414E-02   -0.25245E-01   144   0.183E+00    0.125E+00
DAV:   7    -0.681830781528E+02    0.23432E-02   -0.17832E-01   144   0.139E+00    0.736E-01
DAV:   8    -0.681785341647E+02    0.45440E-02   -0.85330E-02   144   0.882E-01    0.348E-01
DAV:   9    -0.681779809043E+02    0.55326E-03   -0.22411E-02   136   0.406E-01    0.182E-01
DAV:  10    -0.681792237382E+02   -0.12428E-02   -0.34355E-03   144   0.168E-01    0.940E-02
DAV:  11    -0.681799103506E+02   -0.68661E-03   -0.51693E-04   104   0.833E-02    0.472E-02
DAV:  12    -0.681802432875E+02   -0.33294E-03   -0.18233E-04    72   0.450E-02    0.236E-02
DAV:  13    -0.681804828340E+02   -0.23955E-03   -0.65403E-05    72   0.295E-02    0.124E-02
DAV:  14    -0.681807183389E+02   -0.23550E-03   -0.38975E-05    72   0.200E-02    0.849E-03
DAV:  15    -0.681808833912E+02   -0.16505E-03   -0.24740E-05    72   0.142E-02    0.459E-03
DAV:  16    -0.681811137781E+02   -0.23039E-03   -0.35284E-05    72   0.138E-02    0.402E-03
DAV:  17    -0.681812915077E+02   -0.17773E-03   -0.41554E-05    72   0.123E-02    0.353E-03
DAV:  18    -0.681813526072E+02   -0.61100E-04   -0.18295E-05    72   0.105E-02
  14 F= -.68181353E+02 E0= -.68115460E+02  d E =-.173338E+01
       N       E                     dE             d eps       ncg     rms          rms(c)
DAV:   1    -0.691347310847E+02   -0.95344E+00   -0.38640E+01   112   0.560E+01    0.182E+00
DAV:   2    -0.696809297313E+02   -0.54620E+00   -0.60029E+00   104   0.109E+01    0.540E+00
DAV:   3    -0.695478226093E+02    0.13311E+00   -0.26649E+00   144   0.410E+00    0.249E+00
DAV:   4    -0.695081334330E+02    0.39689E-01   -0.48079E-01   136   0.215E+00    0.912E-01
DAV:   5    -0.695034346763E+02    0.46988E-02   -0.89008E-02   136   0.970E-01    0.579E-01
DAV:   6    -0.695108165528E+02   -0.73819E-02   -0.82372E-02   144   0.731E-01    0.706E-01
DAV:   7    -0.695041397346E+02    0.66768E-02   -0.54613E-02   136   0.765E-01    0.277E-01
DAV:   8    -0.695046204166E+02   -0.48068E-03   -0.52448E-03   152   0.247E-01    0.823E-02
DAV:   9    -0.695048836590E+02   -0.26324E-03   -0.82420E-04   128   0.975E-02    0.434E-02
DAV:  10    -0.695049988434E+02   -0.11518E-03   -0.97677E-05    72   0.475E-02    0.353E-02
DAV:  11    -0.695050895540E+02   -0.90711E-04   -0.52082E-05    72   0.289E-02
  15 F= -.69505090E+02 E0= -.69445568E+02  d E =-.132374E+01
       N       E                     dE             d eps       ncg     rms          rms(c)
DAV:   1    -0.687008960185E+02    0.80410E+00   -0.36335E+02   104   0.157E+02    0.553E+00
DAV:   2    -0.724933744948E+02   -0.37925E+01   -0.42903E+01   104   0.339E+01    0.447E+00
DAV:   3    -0.724570806514E+02    0.36294E-01   -0.49110E+00   144   0.104E+01    0.342E+00
DAV:   4    -0.724847975726E+02   -0.27717E-01   -0.23966E+00   152   0.469E+00    0.549E+00
DAV:   5    -0.723389741932E+02    0.14582E+00   -0.22597E+00   152   0.388E+00    0.229E+00
DAV:   6    -0.723124208137E+02    0.26553E-01   -0.51966E-01   136   0.335E+00    0.856E-01
DAV:   7    -0.723124503963E+02   -0.29583E-04   -0.12511E-01   136   0.117E+00    0.387E-01
DAV:   8    -0.723134252631E+02   -0.97487E-03   -0.21272E-02   144   0.429E-01    0.226E-01
DAV:   9    -0.723142174662E+02   -0.79220E-03   -0.37148E-03   144   0.208E-01    0.155E-01
DAV:  10    -0.723147951867E+02   -0.57772E-03   -0.13248E-03   128   0.120E-01    0.864E-02
DAV:  11    -0.723152070139E+02   -0.41183E-03   -0.47514E-04    88   0.638E-02    0.372E-02
DAV:  12    -0.723156098638E+02   -0.40285E-03   -0.14087E-04    80   0.408E-02    0.168E-02
DAV:  13    -0.723159609091E+02   -0.35105E-03   -0.66717E-05    72   0.247E-02    0.123E-02
DAV:  14    -0.723163855391E+02   -0.42463E-03   -0.76872E-05    80   0.204E-02    0.107E-02
DAV:  15    -0.723166986502E+02   -0.31311E-03   -0.42867E-05    64   0.147E-02    0.749E-03
DAV:  16    -0.723170324216E+02   -0.33377E-03   -0.55794E-05    72   0.151E-02    0.380E-03
DAV:  17    -0.723172007707E+02   -0.16835E-03   -0.29331E-05    72   0.122E-02    0.258E-03
DAV:  18    -0.723172724256E+02   -0.71655E-04   -0.19171E-05    56   0.899E-03
  16 F= -.72317272E+02 E0= -.72289689E+02  d E =-.413592E+01
       N       E                     dE             d eps       ncg     rms          rms(c)
DAV:   1    -0.488221856387E+02    0.23495E+02   -0.15602E+03   112   0.295E+02    0.132E+01
DAV:   2    -0.715667184589E+02   -0.22745E+02   -0.23925E+02   128   0.765E+01    0.169E+01
DAV:   3    -0.679471498109E+02    0.36196E+01   -0.63167E+01   144   0.366E+01    0.790E+00
DAV:   4    -0.667267855572E+02    0.12204E+01   -0.81366E+00   136   0.104E+01    0.539E+00
DAV:   5    -0.668852758454E+02   -0.15849E+00   -0.61689E+00   136   0.102E+01    0.519E+00
DAV:   6    -0.665229514709E+02    0.36232E+00   -0.32500E+00   144   0.742E+00    0.334E+00
DAV:   7    -0.664827047536E+02    0.40247E-01   -0.25446E+00   144   0.421E+00    0.217E+00
DAV:   8    -0.664203405179E+02    0.62364E-01   -0.35940E-01   152   0.258E+00    0.628E-01
DAV:   9    -0.664255798150E+02   -0.52393E-02   -0.42986E-02   152   0.809E-01    0.279E-01
DAV:  10    -0.664292711159E+02   -0.36913E-02   -0.16611E-02   144   0.505E-01    0.194E-01
DAV:  11    -0.664300966518E+02   -0.82554E-03   -0.81088E-03   144   0.283E-01    0.107E-01
DAV:  12    -0.664313270496E+02   -0.12304E-02   -0.15827E-03   112   0.115E-01    0.540E-02
DAV:  13    -0.664321948384E+02   -0.86779E-03   -0.45471E-04    88   0.724E-02    0.361E-02
DAV:  14    -0.664331287296E+02   -0.93389E-03   -0.20481E-04    80   0.560E-02    0.174E-02
DAV:  15    -0.664340827531E+02   -0.95402E-03   -0.23415E-04    96   0.461E-02    0.175E-02
DAV:  16    -0.664349374862E+02   -0.85473E-03   -0.11965E-04    80   0.433E-02    0.917E-03
DAV:  17    -0.664353931912E+02   -0.45570E-03   -0.96784E-05    88   0.228E-02    0.570E-03
DAV:  18    -0.664356764983E+02   -0.28331E-03   -0.23263E-05    72   0.163E-02    0.345E-03
DAV:  19    -0.664358853880E+02   -0.20889E-03   -0.38709E-05    80   0.109E-02    0.240E-03
DAV:  20    -0.664359896401E+02   -0.10425E-03   -0.94874E-06    72   0.831E-03    0.136E-03
DAV:  21    -0.664360422148E+02   -0.52575E-04   -0.66537E-06    72   0.555E-03
  17 F= -.66436042E+02 E0= -.66388442E+02  d E =0.174531E+01
       N       E                     dE             d eps       ncg     rms          rms(c)
DAV:   1    -0.608587981195E+02    0.55772E+01   -0.11280E+03   104   0.263E+02    0.109E+01
DAV:   2    -0.744445120938E+02   -0.13586E+02   -0.16841E+02    96   0.631E+01    0.134E+01
DAV:   3    -0.750361421379E+02   -0.59163E+00   -0.60620E+01   152   0.278E+01    0.965E+00
DAV:   4    -0.729596081946E+02    0.20765E+01   -0.49473E+00   144   0.948E+00    0.459E+00
DAV:   5    -0.728981250564E+02    0.61483E-01   -0.42177E+00   144   0.698E+00    0.466E+00
DAV:   6    -0.728807591365E+02    0.17366E-01   -0.45364E+00   144   0.119E+01    0.514E+00
DAV:   7    -0.726643774739E+02    0.21638E+00   -0.14765E+00   136   0.390E+00    0.112E+00
DAV:   8    -0.726758133243E+02   -0.11436E-01   -0.16722E-01   144   0.119E+00    0.836E-01
DAV:   9    -0.726773547561E+02   -0.15414E-02   -0.91123E-02   152   0.789E-01    0.457E-01
DAV:  10    -0.726776956628E+02   -0.34091E-03   -0.22122E-02   144   0.432E-01    0.192E-01
DAV:  11    -0.726787952374E+02   -0.10996E-02   -0.48565E-03   144   0.218E-01    0.102E-01
DAV:  12    -0.726799003926E+02   -0.11052E-02   -0.88730E-04   104   0.102E-01    0.383E-02
DAV:  13    -0.726808756998E+02   -0.97531E-03   -0.19801E-04    80   0.518E-02    0.320E-02
DAV:  14    -0.726819777463E+02   -0.11020E-02   -0.26041E-04    96   0.421E-02    0.129E-02
DAV:  15    -0.726828065356E+02   -0.82879E-03   -0.11756E-04    80   0.286E-02    0.882E-03
DAV:  16    -0.726834494200E+02   -0.64288E-03   -0.12663E-04    88   0.223E-02    0.936E-03
DAV:  17    -0.726838356620E+02   -0.38624E-03   -0.50734E-05    80   0.164E-02    0.396E-03
DAV:  18    -0.726840732501E+02   -0.23759E-03   -0.37282E-05    80   0.118E-02    0.276E-03
DAV:  19    -0.726841872721E+02   -0.11402E-03   -0.11432E-05    72   0.813E-03    0.143E-03
DAV:  20    -0.726842467624E+02   -0.59490E-04   -0.87706E-06    72   0.612E-03
  18 F= -.72684247E+02 E0= -.72661025E+02  d E =-.450289E+01
       N       E                     dE             d eps       ncg     rms          rms(c)
DAV:   1    -0.725867092478E+02    0.97478E-01   -0.22271E+01   112   0.418E+01    0.132E+00
DAV:   2    -0.727805644100E+02   -0.19386E+00   -0.24769E+00   104   0.771E+00    0.994E-01
DAV:   3    -0.727924613273E+02   -0.11897E-01   -0.30198E-01   152   0.222E+00    0.139E+00
DAV:   4    -0.727772182238E+02    0.15243E-01   -0.21968E-01   144   0.159E+00    0.984E-01
DAV:   5    -0.727750079837E+02    0.22102E-02   -0.88727E-02   144   0.111E+00    0.477E-01
DAV:   6    -0.727735851644E+02    0.14228E-02   -0.40892E-02   144   0.904E-01    0.225E-01
DAV:   7    -0.727735002358E+02    0.84929E-04   -0.81834E-03   136   0.308E-01    0.899E-02
DAV:   8    -0.727736739424E+02   -0.17371E-03   -0.12797E-03   136   0.109E-01    0.391E-02
DAV:   9    -0.727737079012E+02   -0.33959E-04   -0.27752E-04    72   0.588E-02
  19 F= -.72773708E+02 E0= -.72750814E+02  d E =-.459236E+01
       N       E                     dE             d eps       ncg     rms          rms(c)
DAV:   1    -0.742788083796E+02   -0.15051E+01   -0.44169E+01    96   0.530E+01    0.292E+00
DAV:   2    -0.749056122746E+02   -0.62680E+00   -0.84710E+00   128   0.122E+01    0.512E+00
DAV:   3    -0.744986786678E+02    0.40693E+00   -0.23794E+00   136   0.672E+00    0.231E+00
DAV:   4    -0.744845418454E+02    0.14137E-01   -0.66775E-01   144   0.262E+00    0.130E+00
DAV:   5    -0.744743470608E+02    0.10195E-01   -0.27247E-01   152   0.185E+00    0.869E-01
DAV:   6    -0.744720421730E+02    0.23049E-02   -0.15377E-01   144   0.198E+00    0.595E-01
DAV:   7    -0.744678273040E+02    0.42149E-02   -0.38164E-02   136   0.735E-01    0.196E-01
DAV:   8    -0.744680651165E+02   -0.23781E-03   -0.54707E-03   152   0.249E-01    0.760E-02
DAV:   9    -0.744682774414E+02   -0.21232E-03   -0.99103E-04   120   0.114E-01    0.533E-02
DAV:  10    -0.744683922569E+02   -0.11482E-03   -0.24517E-04    72   0.632E-02    0.290E-02
DAV:  11    -0.744685075281E+02   -0.11527E-03   -0.96519E-05    72   0.373E-02    0.971E-03
DAV:  12    -0.744686179637E+02   -0.11044E-03   -0.33691E-05    72   0.221E-02    0.495E-03
DAV:  13    -0.744687309354E+02   -0.11297E-03   -0.21294E-05    72   0.146E-02    0.419E-03
DAV:  14    -0.744688477973E+02   -0.11686E-03   -0.18457E-05    72   0.125E-02    0.260E-03
DAV:  15    -0.744689603481E+02   -0.11255E-03   -0.26812E-05    80   0.108E-02    0.162E-03
DAV:  16    -0.744690187406E+02   -0.58393E-04   -0.88763E-06    72   0.680E-03
  20 F= -.74469019E+02 E0= -.74444544E+02  d E =-.169531E+01
       N       E                     dE             d eps       ncg     rms          rms(c)
DAV:   1    -0.749982017501E+02   -0.52924E+00   -0.98263E+01    96   0.778E+01    0.449E+00
DAV:   2    -0.763204322244E+02   -0.13222E+01   -0.19817E+01   136   0.194E+01    0.653E+00
DAV:   3    -0.754501483002E+02    0.87028E+00   -0.41532E+00   136   0.904E+00    0.254E+00
DAV:   4    -0.754401970186E+02    0.99513E-02   -0.11492E+00   136   0.379E+00    0.171E+00
DAV:   5    -0.754175421418E+02    0.22655E-01   -0.51184E-01   144   0.277E+00    0.119E+00
DAV:   6    -0.754173226589E+02    0.21948E-03   -0.29725E-01   136   0.256E+00    0.939E-01
DAV:   7    -0.754048639696E+02    0.12459E-01   -0.83480E-02   136   0.147E+00    0.217E-01
DAV:   8    -0.754056241925E+02   -0.76022E-03   -0.10870E-02   152   0.341E-01    0.107E-01
DAV:   9    -0.754059211377E+02   -0.29695E-03   -0.16502E-03   128   0.140E-01    0.574E-02
DAV:  10    -0.754061945161E+02   -0.27338E-03   -0.21645E-04    80   0.795E-02    0.234E-02
DAV:  11    -0.754064364659E+02   -0.24195E-03   -0.10055E-04    72   0.451E-02    0.105E-02
DAV:  12    -0.754065972961E+02   -0.16083E-03   -0.40538E-05    72   0.339E-02    0.689E-03
DAV:  13    -0.754068090076E+02   -0.21171E-03   -0.31829E-05    72   0.190E-02    0.452E-03
DAV:  14    -0.754070108813E+02   -0.20187E-03   -0.42463E-05    80   0.160E-02    0.293E-03
DAV:  15    -0.754071417383E+02   -0.13086E-03   -0.17784E-05    72   0.107E-02    0.230E-03
DAV:  16    -0.754072132066E+02   -0.71468E-04   -0.13305E-05    72   0.857E-03
  21 F= -.75407213E+02 E0= -.75385699E+02  d E =-.263351E+01
       N       E                     dE             d eps       ncg     rms          rms(c)
DAV:   1    -0.766407432588E+02   -0.12336E+01   -0.30432E+01    96   0.345E+01    0.161E+00
DAV:   2    -0.767509831048E+02   -0.11024E+00   -0.21154E+00   136   0.677E+00    0.182E+00
DAV:   3    -0.767526186931E+02   -0.16356E-02   -0.88191E-01   144   0.390E+00    0.188E+00
DAV:   4    -0.767068383058E+02    0.45780E-01   -0.22953E-01   136   0.242E+00    0.593E-01
DAV:   5    -0.767081893550E+02   -0.13510E-02   -0.96531E-02   136   0.127E+00    0.485E-01
DAV:   6    -0.767067549594E+02    0.14344E-02   -0.57075E-02   144   0.108E+00    0.338E-01
DAV:   7    -0.767053859957E+02    0.13690E-02   -0.18956E-02   136   0.583E-01    0.118E-01
DAV:   8    -0.767056953354E+02   -0.30934E-03   -0.20017E-03   128   0.164E-01    0.541E-02
DAV:   9    -0.767058176572E+02   -0.12232E-03   -0.31333E-04    88   0.607E-02    0.274E-02
DAV:  10    -0.767059148677E+02   -0.97211E-04   -0.13650E-04    72   0.389E-02
  22 F= -.76705915E+02 E0= -.76688127E+02  d E =-.129870E+01
       N       E                     dE             d eps       ncg     rms          rms(c)
DAV:   1    -0.776095093378E+02   -0.90369E+00   -0.14635E+02    96   0.750E+01    0.353E+00
DAV:   2    -0.781880495253E+02   -0.57854E+00   -0.95086E+00   128   0.144E+01    0.298E+00
DAV:   3    -0.783863259505E+02   -0.19828E+00   -0.38080E+00   136   0.720E+00    0.681E+00
DAV:   4    -0.780475375285E+02    0.33879E+00   -0.39594E+00   136   0.532E+00    0.203E+00
DAV:   5    -0.780861037865E+02   -0.38566E-01   -0.82675E-01   144   0.384E+00    0.185E+00
DAV:   6    -0.780364156434E+02    0.49688E-01   -0.34979E-01   144   0.233E+00    0.587E-01
DAV:   7    -0.780380161309E+02   -0.16005E-02   -0.34220E-02   128   0.705E-01    0.334E-01
DAV:   8    -0.780381311066E+02   -0.11498E-03   -0.74309E-03   128   0.296E-01    0.143E-01
DAV:   9    -0.780388746520E+02   -0.74355E-03   -0.17098E-03   136   0.162E-01    0.574E-02
DAV:  10    -0.780393460304E+02   -0.47138E-03   -0.38292E-04    88   0.835E-02    0.388E-02
DAV:  11    -0.780396909545E+02   -0.34492E-03   -0.13060E-04    72   0.433E-02    0.183E-02
DAV:  12    -0.780400395342E+02   -0.34858E-03   -0.83411E-05    80   0.296E-02    0.100E-02
DAV:  13    -0.780404894318E+02   -0.44990E-03   -0.68108E-05    80   0.220E-02    0.751E-03
DAV:  14    -0.780407340327E+02   -0.24460E-03   -0.26773E-05    72   0.143E-02    0.460E-03
DAV:  15    -0.780410142855E+02   -0.28025E-03   -0.64612E-05    72   0.149E-02    0.418E-03
DAV:  16    -0.780411197865E+02   -0.10550E-03   -0.16183E-05    56   0.999E-03    0.266E-03
DAV:  17    -0.780411653749E+02   -0.45588E-04   -0.96457E-06    48   0.703E-03
  23 F= -.78041165E+02 E0= -.78010335E+02  d E =-.263395E+01
       N       E                     dE             d eps       ncg     rms          rms(c)
DAV:   1    -0.793646796749E+02   -0.13236E+01   -0.49418E+01    96   0.486E+01    0.191E+00
DAV:   2    -0.796032655014E+02   -0.23859E+00   -0.33142E+00   128   0.889E+00    0.180E+00
DAV:   3    -0.796518109005E+02   -0.48545E-01   -0.10993E+00   152   0.379E+00    0.288E+00
DAV:   4    -0.795780518164E+02    0.73759E-01   -0.65226E-01   144   0.315E+00    0.137E+00
DAV:   5    -0.795764932654E+02    0.15586E-02   -0.35655E-01   144   0.220E+00    0.114E+00
DAV:   6    -0.795662120854E+02    0.10281E-01   -0.80251E-02   144   0.133E+00    0.323E-01
DAV:   7    -0.795677696655E+02   -0.15576E-02   -0.10733E-02   136   0.338E-01    0.987E-02
DAV:   8    -0.795684856273E+02   -0.71596E-03   -0.15795E-03   128   0.154E-01    0.560E-02
DAV:   9    -0.795686494683E+02   -0.16384E-03   -0.21803E-04    80   0.711E-02    0.238E-02
DAV:  10    -0.795687786544E+02   -0.12919E-03   -0.67730E-05    72   0.351E-02    0.134E-02
DAV:  11    -0.795688774452E+02   -0.98791E-04   -0.25485E-05    56   0.221E-02
  24 F= -.79568877E+02 E0= -.79531208E+02  d E =-.152771E+01
       N       E                     dE             d eps       ncg     rms          rms(c)
DAV:   1    -0.797634603622E+02   -0.19468E+00   -0.25109E+02   104   0.107E+02    0.480E+00
DAV:   2    -0.826243635228E+02   -0.28609E+01   -0.29449E+01   136   0.238E+01    0.151E+01
DAV:   3    -0.810527526161E+02    0.15716E+01   -0.12871E+01   136   0.134E+01    0.408E+00
DAV:   4    -0.810615768215E+02   -0.88242E-02   -0.26975E+00   152   0.654E+00    0.320E+00
DAV:   5    -0.809153394898E+02    0.14624E+00   -0.11160E+00   144   0.395E+00    0.199E+00
DAV:   6    -0.809012257403E+02    0.14114E-01   -0.27113E-01   136   0.228E+00    0.844E-01
DAV:   7    -0.808998776505E+02    0.13481E-02   -0.63802E-02   144   0.947E-01    0.265E-01
DAV:   8    -0.809000862344E+02   -0.20858E-03   -0.10164E-02   128   0.420E-01    0.148E-01
DAV:   9    -0.809007241297E+02   -0.63790E-03   -0.22825E-03   128   0.164E-01    0.124E-01
DAV:  10    -0.809014268355E+02   -0.70271E-03   -0.70923E-04   112   0.978E-02    0.654E-02
DAV:  11    -0.809017360637E+02   -0.30923E-03   -0.17339E-04    80   0.703E-02    0.228E-02
DAV:  12    -0.809021212586E+02   -0.38519E-03   -0.86766E-05    80   0.348E-02    0.940E-03
DAV:  13    -0.809024444768E+02   -0.32322E-03   -0.32234E-05    72   0.205E-02    0.674E-03
DAV:  14    -0.809027944397E+02   -0.34996E-03   -0.51012E-05    72   0.163E-02    0.607E-03
DAV:  15    -0.809030636416E+02   -0.26920E-03   -0.36393E-05    72   0.134E-02    0.416E-03
DAV:  16    -0.809031824738E+02   -0.11883E-03   -0.13532E-05    56   0.949E-03    0.172E-03
DAV:  17    -0.809032662308E+02   -0.83757E-04   -0.12659E-05    48   0.742E-03
  25 F= -.80903266E+02 E0= -.80861308E+02  d E =-.286210E+01
       N       E                     dE             d eps       ncg     rms          rms(c)
DAV:   1    -0.809123301413E+02   -0.91477E-02   -0.10883E+01   104   0.223E+01    0.128E+00
DAV:   2    -0.811861910683E+02   -0.27386E+00   -0.25595E+00   152   0.603E+00    0.439E+00
DAV:   3    -0.809365987630E+02    0.24959E+00   -0.92919E-01   144   0.389E+00    0.798E-01
DAV:   4    -0.809473528719E+02   -0.10754E-01   -0.12422E-01   144   0.138E+00    0.683E-01
DAV:   5    -0.809421934928E+02    0.51594E-02   -0.58796E-02   144   0.102E+00    0.359E-01
DAV:   6    -0.809428107477E+02   -0.61725E-03   -0.13330E-02   128   0.442E-01    0.236E-01
DAV:   7    -0.809425404698E+02    0.27028E-03   -0.34952E-03   128   0.251E-01    0.632E-02
DAV:   8    -0.809426844364E+02   -0.14397E-03   -0.27547E-04    80   0.695E-02    0.282E-02
DAV:   9    -0.809427654269E+02   -0.80991E-04   -0.68720E-05    72   0.372E-02
  26 F= -.80942765E+02 E0= -.80899445E+02  d E =-.290160E+01
       N       E                     dE             d eps       ncg     rms          rms(c)
DAV:   1    -0.818488879074E+02   -0.90620E+00   -0.52162E+01    96   0.494E+01    0.198E+00
DAV:   2    -0.820827044335E+02   -0.23382E+00   -0.35827E+00   128   0.928E+00    0.194E+00
DAV:   3    -0.820681538733E+02    0.14551E-01   -0.71256E-01   144   0.347E+00    0.170E+00
DAV:   4    -0.820930818150E+02   -0.24928E-01   -0.87339E-01   136   0.309E+00    0.313E+00
DAV:   5    -0.820245533254E+02    0.68528E-01   -0.61390E-01   136   0.192E+00    0.701E-01
DAV:   6    -0.820326689505E+02   -0.81156E-02   -0.58684E-02   144   0.823E-01    0.276E-01
DAV:   7    -0.820324188765E+02    0.25007E-03   -0.84843E-03   128   0.277E-01    0.891E-02
DAV:   8    -0.820330187864E+02   -0.59991E-03   -0.82469E-04   120   0.139E-01    0.603E-02
DAV:   9    -0.820331374971E+02   -0.11871E-03   -0.15490E-04    72   0.659E-02    0.282E-02
DAV:  10    -0.820332302226E+02   -0.92726E-04   -0.73126E-05    72   0.379E-02
  27 F= -.82033230E+02 E0= -.82000936E+02  d E =-.109046E+01
       N       E                     dE             d eps       ncg     rms          rms(c)
DAV:   1    -0.821901362686E+02   -0.15700E+00   -0.32053E+01    96   0.389E+01    0.160E+00
DAV:   2    -0.823778191161E+02   -0.18768E+00   -0.26523E+00   120   0.741E+00    0.316E+00
DAV:   3    -0.823424618646E+02    0.35357E-01   -0.14987E+00   144   0.378E+00    0.237E+00
DAV:   4    -0.823091761662E+02    0.33286E-01   -0.46203E-01   152   0.324E+00    0.105E+00
DAV:   5    -0.822977442198E+02    0.11432E-01   -0.11344E-01   144   0.152E+00    0.432E-01
DAV:   6    -0.822979034003E+02   -0.15918E-03   -0.21983E-02   120   0.584E-01    0.174E-01
DAV:   7    -0.822980888142E+02   -0.18541E-03   -0.30880E-03   128   0.210E-01    0.740E-02
DAV:   8    -0.822983806708E+02   -0.29186E-03   -0.39706E-04    96   0.916E-02    0.289E-02
DAV:   9    -0.822985193419E+02   -0.13867E-03   -0.83190E-05    72   0.456E-02    0.124E-02
DAV:  10    -0.822986279588E+02   -0.10862E-03   -0.34208E-05    56   0.255E-02    0.890E-03
DAV:  11    -0.822987421268E+02   -0.11417E-03   -0.15723E-05    64   0.161E-02    0.456E-03
DAV:  12    -0.822988599553E+02   -0.11783E-03   -0.15034E-05    56   0.113E-02    0.238E-03
DAV:  13    -0.822989678441E+02   -0.10789E-03   -0.17421E-05    72   0.941E-03    0.223E-03
DAV:  14    -0.822990183510E+02   -0.50507E-04   -0.52394E-06    48   0.626E-03
  28 F= -.82299018E+02 E0= -.82272430E+02  d E =-.135625E+01
       N       E                     dE             d eps       ncg     rms          rms(c)
DAV:   1    -0.830590558386E+02   -0.76009E+00   -0.43630E+01   104   0.504E+01    0.243E+00
DAV:   2    -0.838217165139E+02   -0.76266E+00   -0.81120E+00   136   0.129E+01    0.657E+00
DAV:   3    -0.832644376834E+02    0.55728E+00   -0.27087E+00   144   0.672E+00    0.120E+00
DAV:   4    -0.832843737673E+02   -0.19936E-01   -0.29096E-01   144   0.227E+00    0.123E+00
DAV:   5    -0.832718319437E+02    0.12542E-01   -0.18949E-01   136   0.183E+00    0.561E-01
DAV:   6    -0.832698185218E+02    0.20134E-02   -0.42498E-02   136   0.799E-01    0.360E-01
DAV:   7    -0.832698435539E+02   -0.25032E-04   -0.11210E-02   128   0.359E-01    0.120E-01
DAV:   8    -0.832700259442E+02   -0.18239E-03   -0.15523E-03   128   0.120E-01    0.447E-02
DAV:   9    -0.832701892401E+02   -0.16330E-03   -0.15411E-04    72   0.563E-02    0.313E-02
DAV:  10    -0.832702961073E+02   -0.10687E-03   -0.80686E-05    72   0.377E-02    0.953E-03
DAV:  11    -0.832703696223E+02   -0.73515E-04   -0.20901E-05    72   0.215E-02
  29 F= -.83270370E+02 E0= -.83241746E+02  d E =-.971351E+00
       N       E                     dE             d eps       ncg     rms          rms(c)
DAV:   1    -0.834127741354E+02   -0.14248E+00   -0.51579E+01   104   0.549E+01    0.267E+00
DAV:   2    -0.842994391027E+02   -0.88666E+00   -0.97010E+00   136   0.141E+01    0.736E+00
DAV:   3    -0.836424058123E+02    0.65703E+00   -0.36020E+00   136   0.777E+00    0.136E+00
DAV:   4    -0.836715561368E+02   -0.29150E-01   -0.43258E-01   152   0.261E+00    0.157E+00
DAV:   5    -0.836506784990E+02    0.20878E-01   -0.27059E-01   136   0.238E+00    0.574E-01
DAV:   6    -0.836489247579E+02    0.17537E-02   -0.42784E-02   136   0.824E-01    0.332E-01
DAV:   7    -0.836493850682E+02   -0.46031E-03   -0.99203E-03   128   0.347E-01    0.122E-01
DAV:   8    -0.836495875580E+02   -0.20249E-03   -0.16784E-03   136   0.122E-01    0.481E-02
DAV:   9    -0.836498179769E+02   -0.23042E-03   -0.21176E-04    72   0.575E-02    0.388E-02
DAV:  10    -0.836500068515E+02   -0.18887E-03   -0.11825E-04    80   0.420E-02    0.116E-02
DAV:  11    -0.836501279396E+02   -0.12109E-03   -0.22195E-05    72   0.240E-02    0.592E-03
DAV:  12    -0.836502749079E+02   -0.14697E-03   -0.22114E-05    80   0.156E-02    0.407E-03
DAV:  13    -0.836503791974E+02   -0.10429E-03   -0.81772E-06    72   0.976E-03    0.256E-03
DAV:  14    -0.836505125331E+02   -0.13334E-03   -0.18645E-05    80   0.908E-03    0.267E-03
DAV:  15    -0.836505753250E+02   -0.62792E-04   -0.74345E-06    72   0.679E-03
  30 F= -.83650575E+02 E0= -.83621372E+02  d E =-.135156E+01
       N       E                     dE             d eps       ncg     rms          rms(c)
DAV:   1    -0.841152848587E+02   -0.46477E+00   -0.20031E+01   104   0.369E+01    0.155E+00
DAV:   2    -0.844816085344E+02   -0.36632E+00   -0.38418E+00   136   0.939E+00    0.531E+00
DAV:   3    -0.842127042231E+02    0.26890E+00   -0.19699E+00   136   0.515E+00    0.984E-01
DAV:   4    -0.842312608587E+02   -0.18557E-01   -0.14765E-01   144   0.144E+00    0.609E-01
DAV:   5    -0.842307466406E+02    0.51422E-03   -0.87746E-02   152   0.109E+00    0.612E-01
DAV:   6    -0.842276076065E+02    0.31390E-02   -0.27900E-02   136   0.741E-01    0.199E-01
DAV:   7    -0.842278797326E+02   -0.27213E-03   -0.41727E-03   128   0.227E-01    0.103E-01
DAV:   8    -0.842281818942E+02   -0.30216E-03   -0.58857E-04   104   0.116E-01    0.374E-02
DAV:   9    -0.842283025954E+02   -0.12070E-03   -0.10146E-04    72   0.496E-02    0.164E-02
DAV:  10    -0.842283599752E+02   -0.57380E-04   -0.44508E-05    72   0.280E-02
  31 F= -.84228360E+02 E0= -.84196764E+02  d E =-.577785E+00
       N       E                     dE             d eps       ncg     rms          rms(c)
DAV:   1    -0.841846234523E+02    0.43679E-01   -0.11977E+02   104   0.877E+01    0.348E+00
DAV:   2    -0.854671277897E+02   -0.12825E+01   -0.14598E+01   136   0.209E+01    0.849E+00
DAV:   3    -0.848760426808E+02    0.59109E+00   -0.74199E+00   152   0.101E+01    0.259E+00
DAV:   4    -0.848234548695E+02    0.52588E-01   -0.62912E-01   136   0.345E+00    0.111E+00
DAV:   5    -0.848483399402E+02   -0.24885E-01   -0.48868E-01   144   0.239E+00    0.186E+00
DAV:   6    -0.848111812402E+02    0.37159E-01   -0.30286E-01   136   0.239E+00    0.436E-01
DAV:   7    -0.848140361053E+02   -0.28549E-02   -0.34362E-02   136   0.729E-01    0.179E-01
DAV:   8    -0.848148421671E+02   -0.80606E-03   -0.36792E-03   120   0.255E-01    0.968E-02
DAV:   9    -0.848152801330E+02   -0.43797E-03   -0.74476E-04   128   0.112E-01    0.370E-02
DAV:  10    -0.848155836137E+02   -0.30348E-03   -0.10926E-04    72   0.540E-02    0.195E-02
DAV:  11    -0.848158312284E+02   -0.24761E-03   -0.82093E-05    80   0.316E-02    0.931E-03
DAV:  12    -0.848160618117E+02   -0.23058E-03   -0.23965E-05    72   0.207E-02    0.680E-03
DAV:  13    -0.848164017884E+02   -0.33998E-03   -0.45579E-05    80   0.164E-02    0.556E-03
DAV:  14    -0.848165941471E+02   -0.19236E-03   -0.19110E-05    72   0.130E-02    0.257E-03
DAV:  15    -0.848167338214E+02   -0.13967E-03   -0.22224E-05    80   0.976E-03    0.247E-03
DAV:  16    -0.848168010284E+02   -0.67207E-04   -0.75991E-06    72   0.687E-03
  32 F= -.84816801E+02 E0= -.84776638E+02  d E =-.116623E+01
       N       E                     dE             d eps       ncg     rms          rms(c)
DAV:   1    -0.850913315052E+02   -0.27460E+00   -0.25927E+01   112   0.459E+01    0.154E+00
DAV:   2    -0.853604785509E+02   -0.26915E+00   -0.30971E+00   120   0.863E+00    0.292E+00
DAV:   3    -0.853020600655E+02    0.58418E-01   -0.11948E+00   144   0.509E+00    0.165E+00
DAV:   4    -0.852957178917E+02    0.63422E-02   -0.25879E-01   144   0.203E+00    0.961E-01
DAV:   5    -0.852880333056E+02    0.76846E-02   -0.13240E-01   144   0.142E+00    0.637E-01
DAV:   6    -0.852861851326E+02    0.18482E-02   -0.46289E-02   136   0.633E-01    0.224E-01
DAV:   7    -0.852860924438E+02    0.92689E-04   -0.85722E-03   136   0.266E-01    0.775E-02
DAV:   8    -0.852863336492E+02   -0.24121E-03   -0.74227E-04   104   0.104E-01    0.542E-02
DAV:   9    -0.852865356246E+02   -0.20198E-03   -0.12906E-04    80   0.552E-02    0.243E-02
DAV:  10    -0.852866713289E+02   -0.13570E-03   -0.44454E-05    72   0.321E-02    0.905E-03
DAV:  11    -0.852868062678E+02   -0.13494E-03   -0.28657E-05    80   0.184E-02    0.390E-03
DAV:  12    -0.852869571919E+02   -0.15092E-03   -0.23105E-05    80   0.128E-02    0.268E-03
DAV:  13    -0.852870600648E+02   -0.10287E-03   -0.14076E-05    72   0.917E-03    0.277E-03
DAV:  14    -0.852871335275E+02   -0.73463E-04   -0.17355E-05    80   0.814E-03
  33 F= -.85287134E+02 E0= -.85256299E+02  d E =-.470332E+00
       N       E                     dE             d eps       ncg     rms          rms(c)
DAV:   1    -0.852593178535E+02    0.27742E-01   -0.28834E+01   112   0.482E+01    0.166E+00
DAV:   2    -0.855448870106E+02   -0.28557E+00   -0.33820E+00   128   0.936E+00    0.296E+00
DAV:   3    -0.854908451678E+02    0.54042E-01   -0.12928E+00   144   0.515E+00    0.169E+00
DAV:   4    -0.854771335598E+02    0.13712E-01   -0.26777E-01   136   0.211E+00    0.957E-01
DAV:   5    -0.854729595251E+02    0.41740E-02   -0.17202E-01   144   0.161E+00    0.793E-01
DAV:   6    -0.854695909744E+02    0.33686E-02   -0.98475E-02   144   0.769E-01    0.347E-01
DAV:   7    -0.854682062531E+02    0.13847E-02   -0.17811E-02   152   0.414E-01    0.929E-02
DAV:   8    -0.854685328729E+02   -0.32662E-03   -0.13226E-03   120   0.139E-01    0.639E-02
DAV:   9    -0.854687399392E+02   -0.20707E-03   -0.16120E-04    80   0.705E-02    0.266E-02
DAV:  10    -0.854688770091E+02   -0.13707E-03   -0.64300E-05    80   0.365E-02    0.943E-03
DAV:  11    -0.854690013470E+02   -0.12434E-03   -0.22722E-05    72   0.241E-02    0.469E-03
DAV:  12    -0.854691147992E+02   -0.11345E-03   -0.21760E-05    80   0.143E-02    0.307E-03
DAV:  13    -0.854692389671E+02   -0.12417E-03   -0.19172E-05    80   0.106E-02    0.273E-03
DAV:  14    -0.854693028378E+02   -0.63871E-04   -0.97282E-06    72   0.779E-03
  34 F= -.85469303E+02 E0= -.85446221E+02  d E =-.652502E+00
       N       E                     dE             d eps       ncg     rms          rms(c)
DAV:   1    -0.857684907507E+02   -0.29925E+00   -0.12994E+01   112   0.319E+01    0.125E+00
DAV:   2    -0.858524266161E+02   -0.83936E-01   -0.14812E+00   120   0.596E+00    0.101E+00
DAV:   3    -0.858422166730E+02    0.10210E-01   -0.21861E-01   136   0.231E+00    0.813E-01
DAV:   4    -0.858381677123E+02    0.40490E-02   -0.14220E-01   136   0.153E+00    0.615E-01
DAV:   5    -0.858375593866E+02    0.60833E-03   -0.10398E-01   144   0.130E+00    0.689E-01
DAV:   6    -0.858338124406E+02    0.37469E-02   -0.46493E-02   136   0.110E+00    0.272E-01
DAV:   7    -0.858336678616E+02    0.14458E-03   -0.94163E-03   128   0.427E-01    0.910E-02
DAV:   8    -0.858338394146E+02   -0.17155E-03   -0.79802E-04   120   0.169E-01    0.236E-02
DAV:   9    -0.858339405038E+02   -0.10109E-03   -0.73558E-05    72   0.500E-02    0.115E-02
DAV:  10    -0.858340215910E+02   -0.81087E-04   -0.39895E-05    72   0.291E-02
  35 F= -.85834022E+02 E0= -.85817845E+02  d E =-.364719E+00
       N       E                     dE             d eps       ncg     rms          rms(c)
DAV:   1    -0.858773171159E+02   -0.43377E-01   -0.11651E+01   112   0.306E+01    0.114E+00
DAV:   2    -0.859577013505E+02   -0.80384E-01   -0.13216E+00   104   0.563E+00    0.953E-01
DAV:   3    -0.859539636149E+02    0.37377E-02   -0.22329E-01   144   0.227E+00    0.101E+00
DAV:   4    -0.859496677034E+02    0.42959E-02   -0.19575E-01   136   0.217E+00    0.931E-01
DAV:   5    -0.859440283503E+02    0.56394E-02   -0.78104E-02   136   0.136E+00    0.444E-01
DAV:   6    -0.859431469310E+02    0.88142E-03   -0.40599E-02   136   0.717E-01    0.300E-01
DAV:   7    -0.859423277303E+02    0.81920E-03   -0.94409E-03   136   0.315E-01    0.743E-02
DAV:   8    -0.859426443195E+02   -0.31659E-03   -0.62595E-04   112   0.107E-01    0.291E-02
DAV:   9    -0.859427899664E+02   -0.14565E-03   -0.84017E-05    72   0.553E-02    0.177E-02
DAV:  10    -0.859429163847E+02   -0.12642E-03   -0.45808E-05    80   0.281E-02    0.829E-03
DAV:  11    -0.859430026740E+02   -0.86289E-04   -0.12879E-05    72   0.173E-02
  36 F= -.85943003E+02 E0= -.85928833E+02  d E =-.473700E+00
       N       E                     dE             d eps       ncg     rms          rms(c)
DAV:   1    -0.861392587578E+02   -0.19634E+00   -0.95526E+00   112   0.263E+01    0.116E+00
DAV:   2    -0.862033320927E+02   -0.64073E-01   -0.12444E+00   120   0.523E+00    0.141E+00
DAV:   3    -0.861909487207E+02    0.12383E-01   -0.53262E-01   136   0.319E+00    0.129E+00
DAV:   4    -0.861805945294E+02    0.10354E-01   -0.15383E-01   136   0.218E+00    0.710E-01
DAV:   5    -0.861772833583E+02    0.33112E-02   -0.72044E-02   136   0.116E+00    0.414E-01
DAV:   6    -0.861762932293E+02    0.99013E-03   -0.16041E-02   136   0.501E-01    0.150E-01
DAV:   7    -0.861764443996E+02   -0.15117E-03   -0.30639E-03   128   0.214E-01    0.706E-02
DAV:   8    -0.861764600702E+02   -0.15671E-04   -0.69339E-04    96   0.960E-02
  37 F= -.86176460E+02 E0= -.86159520E+02  d E =-.233457E+00
       N       E                     dE             d eps       ncg     rms          rms(c)
DAV:   1    -0.862194514225E+02   -0.43007E-01   -0.13230E+01   112   0.309E+01    0.140E+00
DAV:   2    -0.862931433665E+02   -0.73692E-01   -0.15814E+00   112   0.601E+00    0.129E+00
DAV:   3    -0.862833668899E+02    0.97765E-02   -0.43120E-01   152   0.272E+00    0.114E+00
DAV:   4    -0.862706326773E+02    0.12734E-01   -0.16787E-01   136   0.154E+00    0.662E-01
DAV:   5    -0.862696901865E+02    0.94249E-03   -0.58175E-02   136   0.128E+00    0.521E-01
DAV:   6    -0.862676384500E+02    0.20517E-02   -0.40594E-02   144   0.933E-01    0.214E-01
DAV:   7    -0.862678090009E+02   -0.17055E-03   -0.65961E-03   136   0.320E-01    0.920E-02
DAV:   8    -0.862678157604E+02   -0.67595E-05   -0.10152E-03   128   0.129E-01    0.345E-02
DAV:   9    -0.862679582760E+02   -0.14252E-03   -0.14172E-04    64   0.607E-02    0.232E-02
DAV:  10    -0.862681028759E+02   -0.14460E-03   -0.50028E-05    64   0.386E-02    0.114E-02
DAV:  11    -0.862681778817E+02   -0.75006E-04   -0.16631E-05    48   0.188E-02
  38 F= -.86268178E+02 E0= -.86247802E+02  d E =-.325175E+00
       N       E                     dE             d eps       ncg     rms          rms(c)
DAV:   1    -0.864174809697E+02   -0.14938E+00   -0.10796E+01   112   0.284E+01    0.104E+00
DAV:   2    -0.865091350035E+02   -0.91654E-01   -0.13344E+00   120   0.548E+00    0.125E+00
DAV:   3    -0.864917815906E+02    0.17353E-01   -0.35579E-01   144   0.243E+00    0.888E-01
DAV:   4    -0.864892338303E+02    0.25478E-02   -0.97473E-02   136   0.178E+00    0.671E-01
DAV:   5    -0.864884938888E+02    0.73994E-03   -0.66220E-02   144   0.111E+00    0.549E-01
DAV:   6    -0.864861165460E+02    0.23773E-02   -0.23718E-02   128   0.655E-01    0.199E-01
DAV:   7    -0.864860028662E+02    0.11368E-03   -0.43417E-03   144   0.236E-01    0.634E-02
DAV:   8    -0.864861872429E+02   -0.18438E-03   -0.51393E-04   104   0.109E-01    0.341E-02
DAV:   9    -0.864862739255E+02   -0.86683E-04   -0.67176E-05    72   0.471E-02
  39 F= -.86486274E+02 E0= -.86465955E+02  d E =-.218096E+00
       N       E                     dE             d eps       ncg     rms          rms(c)
DAV:   1    -0.864758324248E+02    0.10355E-01   -0.17367E+01   112   0.359E+01    0.129E+00
DAV:   2    -0.866209610171E+02   -0.14513E+00   -0.20711E+00   120   0.692E+00    0.147E+00
DAV:   3    -0.865985103664E+02    0.22451E-01   -0.49664E-01   144   0.279E+00    0.106E+00
DAV:   4    -0.865953686372E+02    0.31417E-02   -0.14718E-01   136   0.202E+00    0.858E-01
DAV:   5    -0.865936745880E+02    0.16940E-02   -0.10402E-01   136   0.133E+00    0.679E-01
DAV:   6    -0.865902098714E+02    0.34647E-02   -0.34494E-02   144   0.799E-01    0.256E-01
DAV:   7    -0.865897247545E+02    0.48512E-03   -0.76318E-03   136   0.301E-01    0.847E-02
DAV:   8    -0.865900278938E+02   -0.30314E-03   -0.98114E-04   120   0.143E-01    0.437E-02
DAV:   9    -0.865901625379E+02   -0.13464E-03   -0.10049E-04    72   0.563E-02    0.275E-02
DAV:  10    -0.865903102628E+02   -0.14772E-03   -0.69908E-05    80   0.345E-02    0.103E-02
DAV:  11    -0.865904230657E+02   -0.11280E-03   -0.17451E-05    72   0.200E-02    0.473E-03
DAV:  12    -0.865905297919E+02   -0.10673E-03   -0.13360E-05    64   0.116E-02    0.294E-03
DAV:  13    -0.865906162562E+02   -0.86464E-04   -0.68572E-06    64   0.737E-03
  40 F= -.86590616E+02 E0= -.86571870E+02  d E =-.322438E+00
       N       E                     dE             d eps       ncg     rms          rms(c)
DAV:   1    -0.867277373927E+02   -0.13721E+00   -0.13655E+01    96   0.293E+01    0.120E+00
DAV:   2    -0.868209294217E+02   -0.93192E-01   -0.13051E+00   120   0.622E+00    0.179E+00
DAV:   3    -0.868065154091E+02    0.14414E-01   -0.45060E-01   144   0.301E+00    0.117E+00
DAV:   4    -0.867933922688E+02    0.13123E-01   -0.71537E-02   128   0.142E+00    0.429E-01
DAV:   5    -0.867979464605E+02   -0.45542E-02   -0.74441E-02   144   0.901E-01    0.612E-01
DAV:   6    -0.867930420956E+02    0.49044E-02   -0.36380E-02   136   0.677E-01    0.102E-01
DAV:   7    -0.867936413152E+02   -0.59922E-03   -0.28141E-03   128   0.188E-01    0.642E-02
DAV:   8    -0.867936177299E+02    0.23585E-04   -0.42734E-04    80   0.728E-02
  41 F= -.86793618E+02 E0= -.86774888E+02  d E =-.203001E+00
       N       E                     dE             d eps       ncg     rms          rms(c)
DAV:   1    -0.868029557277E+02   -0.93144E-02   -0.36731E+00    96   0.152E+01    0.617E-01
DAV:   2    -0.868269392689E+02   -0.23984E-01   -0.34587E-01   120   0.314E+00    0.864E-01
DAV:   3    -0.868238383230E+02    0.31009E-02   -0.11308E-01   144   0.155E+00    0.636E-01
DAV:   4    -0.868204594833E+02    0.33788E-02   -0.22808E-02   128   0.774E-01    0.239E-01
DAV:   5    -0.868216230750E+02   -0.11636E-02   -0.20161E-02   144   0.462E-01    0.315E-01
DAV:   6    -0.868205534255E+02    0.10696E-02   -0.93818E-03   136   0.329E-01    0.598E-02
DAV:   7    -0.868207795675E+02   -0.22614E-03   -0.91123E-04   112   0.101E-01    0.375E-02
DAV:   8    -0.868207987910E+02   -0.19224E-04   -0.15767E-04    72   0.499E-02
  42 F= -.86820799E+02 E0= -.86802086E+02  d E =-.230183E+00
       N       E                     dE             d eps       ncg     rms          rms(c)
DAV:   1    -0.869368004831E+02   -0.11602E+00   -0.12101E+01   104   0.278E+01    0.955E-01
DAV:   2    -0.870073139066E+02   -0.70513E-01   -0.10149E+00   112   0.486E+00    0.790E-01
DAV:   3    -0.870084581477E+02   -0.11442E-02   -0.24628E-01   152   0.179E+00    0.828E-01
DAV:   4    -0.870014065513E+02    0.70516E-02   -0.74530E-02   136   0.109E+00    0.368E-01
DAV:   5    -0.870018297665E+02   -0.42322E-03   -0.29167E-02   136   0.705E-01    0.326E-01
DAV:   6    -0.870036106351E+02   -0.17809E-02   -0.24956E-02   144   0.688E-01    0.448E-01
DAV:   7    -0.870013201996E+02    0.22904E-02   -0.12117E-02   136   0.547E-01    0.545E-02
DAV:   8    -0.870016119697E+02   -0.29177E-03   -0.64765E-04   112   0.114E-01    0.302E-02
DAV:   9    -0.870017029184E+02   -0.90949E-04   -0.64604E-05    72   0.520E-02
  43 F= -.87001703E+02 E0= -.86982435E+02  d E =-.180904E+00
       N       E                     dE             d eps       ncg     rms          rms(c)
DAV:   1    -0.869719459270E+02    0.29666E-01   -0.21735E+01    96   0.373E+01    0.130E+00
DAV:   2    -0.871252273211E+02   -0.15328E+00   -0.20742E+00   120   0.696E+00    0.153E+00
DAV:   3    -0.871070461716E+02    0.18181E-01   -0.51449E-01   160   0.359E+00    0.122E+00
DAV:   4    -0.870969684860E+02    0.10078E-01   -0.13682E-01   144   0.161E+00    0.601E-01
DAV:   5    -0.870990002752E+02   -0.20318E-02   -0.78176E-02   144   0.108E+00    0.672E-01
DAV:   6    -0.870965661156E+02    0.24342E-02   -0.50073E-02   144   0.911E-01    0.361E-01
DAV:   7    -0.870954509434E+02    0.11152E-02   -0.10655E-02   128   0.428E-01    0.734E-02
DAV:   8    -0.870957853096E+02   -0.33437E-03   -0.10031E-03   120   0.138E-01    0.449E-02
DAV:   9    -0.870959865437E+02   -0.20123E-03   -0.12694E-04    80   0.691E-02    0.214E-02
DAV:  10    -0.870961350093E+02   -0.14847E-03   -0.53106E-05    80   0.304E-02    0.830E-03
DAV:  11    -0.870962683628E+02   -0.13335E-03   -0.15720E-05    64   0.199E-02    0.479E-03
DAV:  12    -0.870964294685E+02   -0.16111E-03   -0.20181E-05    72   0.124E-02    0.281E-03
DAV:  13    -0.870965556945E+02   -0.12623E-03   -0.13055E-05    64   0.900E-03    0.249E-03
DAV:  14    -0.870966666343E+02   -0.11094E-03   -0.15011E-05    72   0.907E-03    0.154E-03
DAV:  15    -0.870967171426E+02   -0.50508E-04   -0.74047E-06    48   0.646E-03
  44 F= -.87096717E+02 E0= -.87074694E+02  d E =-.275918E+00
       N       E                     dE             d eps       ncg     rms          rms(c)
DAV:   1    -0.871568765722E+02   -0.60210E-01   -0.16471E+01    96   0.290E+01    0.105E+00
DAV:   2    -0.872365548267E+02   -0.79678E-01   -0.11212E+00    96   0.518E+00    0.988E-01
DAV:   3    -0.872418608826E+02   -0.53061E-02   -0.26408E-01   152   0.241E+00    0.119E+00
DAV:   4    -0.872251138268E+02    0.16747E-01   -0.12871E-01   136   0.187E+00    0.423E-01
DAV:   5    -0.872268802669E+02   -0.17664E-02   -0.38081E-02   120   0.636E-01    0.285E-01
DAV:   6    -0.872263258914E+02    0.55438E-03   -0.20338E-02   136   0.411E-01    0.230E-01
DAV:   7    -0.872257516471E+02    0.57424E-03   -0.64493E-03   128   0.330E-01    0.791E-02
DAV:   8    -0.872259079273E+02   -0.15628E-03   -0.58236E-04    96   0.106E-01    0.255E-02
DAV:   9    -0.872260044013E+02   -0.96474E-04   -0.71682E-05    72   0.452E-02
  45 F= -.87226004E+02 E0= -.87203116E+02  d E =-.129287E+00
       N       E                     dE             d eps       ncg     rms          rms(c)
DAV:   1    -0.872264052876E+02   -0.49736E-03   -0.13618E-01   104   0.262E+00    0.953E-02
DAV:   2    -0.872270695192E+02   -0.66423E-03   -0.93352E-03    96   0.474E-01    0.936E-02
DAV:   3    -0.872270884918E+02   -0.18973E-04   -0.22286E-03   136   0.251E-01    0.106E-01
DAV:   4    -0.872270152454E+02    0.73246E-04   -0.11520E-03   112   0.177E-01    0.467E-02
DAV:   5    -0.872270956898E+02   -0.80444E-04   -0.52143E-04    88   0.836E-02
  46 F= -.87227096E+02 E0= -.87204535E+02  d E =-.130379E+00
       N       E                     dE             d eps       ncg     rms          rms(c)
DAV:   1    -0.873069925894E+02   -0.79977E-01   -0.11434E+01    96   0.263E+01    0.103E+00
DAV:   2    -0.873742072239E+02   -0.67215E-01   -0.11026E+00   120   0.512E+00    0.137E+00
DAV:   3    -0.873644540579E+02    0.97532E-02   -0.39433E-01   136   0.268E+00    0.111E+00
DAV:   4    -0.873534320199E+02    0.11022E-01   -0.11407E-01   136   0.178E+00    0.501E-01
DAV:   5    -0.873535893433E+02   -0.15732E-03   -0.53904E-02   144   0.778E-01    0.400E-01
DAV:   6    -0.873525983776E+02    0.99097E-03   -0.22641E-02   136   0.606E-01    0.204E-01
DAV:   7    -0.873522331520E+02    0.36523E-03   -0.44060E-03   136   0.261E-01    0.579E-02
DAV:   8    -0.873525091430E+02   -0.27599E-03   -0.30344E-04    88   0.754E-02    0.224E-02
DAV:   9    -0.873527069555E+02   -0.19781E-03   -0.58037E-05    72   0.377E-02    0.104E-02
DAV:  10    -0.873529016892E+02   -0.19473E-03   -0.40095E-05    80   0.205E-02    0.674E-03
DAV:  11    -0.873531441732E+02   -0.24248E-03   -0.29577E-05    72   0.167E-02    0.403E-03
DAV:  12    -0.873533674393E+02   -0.22327E-03   -0.35192E-05    72   0.123E-02    0.299E-03
DAV:  13    -0.873535010695E+02   -0.13363E-03   -0.18596E-05    56   0.973E-03    0.144E-03
DAV:  14    -0.873535782525E+02   -0.77183E-04   -0.16525E-05    64   0.755E-03
  47 F= -.87353578E+02 E0= -.87329314E+02  d E =-.126483E+00
       N       E                     dE             d eps       ncg     rms          rms(c)
DAV:   1    -0.873585843740E+02   -0.50833E-02   -0.60259E+00    96   0.191E+01    0.754E-01
DAV:   2    -0.873923843088E+02   -0.33800E-01   -0.57579E-01   120   0.370E+00    0.964E-01
DAV:   3    -0.873886512009E+02    0.37331E-02   -0.20435E-01   136   0.204E+00    0.851E-01
DAV:   4    -0.873817899906E+02    0.68612E-02   -0.64683E-02   136   0.118E+00    0.350E-01
DAV:   5    -0.873822941808E+02   -0.50419E-03   -0.26294E-02   136   0.553E-01    0.281E-01
DAV:   6    -0.873817769594E+02    0.51722E-03   -0.11502E-02   136   0.434E-01    0.140E-01
DAV:   7    -0.873816042649E+02    0.17269E-03   -0.20470E-03   120   0.182E-01    0.411E-02
DAV:   8    -0.873817051494E+02   -0.10088E-03   -0.17867E-04    80   0.583E-02    0.162E-02
DAV:   9    -0.873817809574E+02   -0.75808E-04   -0.38427E-05    72   0.297E-02
  48 F= -.87381781E+02 E0= -.87356275E+02  d E =-.154685E+00
       N       E                     dE             d eps       ncg     rms          rms(c)
DAV:   1    -0.874416420313E+02   -0.59937E-01   -0.14162E+01    96   0.297E+01    0.117E+00
DAV:   2    -0.875349166594E+02   -0.93275E-01   -0.13542E+00   112   0.611E+00    0.181E+00
DAV:   3    -0.875015590566E+02    0.33358E-01   -0.37633E-01   144   0.345E+00    0.887E-01
DAV:   4    -0.874980511387E+02    0.35079E-02   -0.95696E-02   136   0.148E+00    0.460E-01
DAV:   5    -0.874989423030E+02   -0.89116E-03   -0.53776E-02   144   0.918E-01    0.411E-01
DAV:   6    -0.874975083898E+02    0.14339E-02   -0.23071E-02   136   0.606E-01    0.166E-01
DAV:   7    -0.874975063770E+02    0.20128E-05   -0.37095E-03   136   0.238E-01    0.604E-02
DAV:   8    -0.874977588995E+02   -0.25252E-03   -0.38353E-04    88   0.826E-02    0.263E-02
DAV:   9    -0.874980058398E+02   -0.24694E-03   -0.73700E-05    72   0.400E-02    0.106E-02
DAV:  10    -0.874981995951E+02   -0.19376E-03   -0.37412E-05    72   0.241E-02    0.611E-03
DAV:  11    -0.874984647714E+02   -0.26518E-03   -0.43421E-05    80   0.163E-02    0.377E-03
DAV:  12    -0.874986544896E+02   -0.18972E-03   -0.23744E-05    72   0.109E-02    0.267E-03
DAV:  13    -0.874987914973E+02   -0.13701E-03   -0.26033E-05    80   0.898E-03    0.163E-03
DAV:  14    -0.874988647915E+02   -0.73294E-04   -0.96990E-06    72   0.669E-03
  49 F= -.87498865E+02 E0= -.87475945E+02  d E =-.117084E+00
       N       E                     dE             d eps       ncg     rms          rms(c)
DAV:   1    -0.875006945711E+02   -0.19031E-02   -0.16070E+00    96   0.100E+01    0.397E-01
DAV:   2    -0.875124266900E+02   -0.11732E-01   -0.16339E-01   120   0.213E+00    0.717E-01
DAV:   3    -0.875066839505E+02    0.57427E-02   -0.50875E-02   136   0.127E+00    0.275E-01
DAV:   4    -0.875070433159E+02   -0.35937E-03   -0.92238E-03   128   0.514E-01    0.144E-01
DAV:   5    -0.875072293494E+02   -0.18603E-03   -0.59805E-03   136   0.298E-01    0.140E-01
DAV:   6    -0.875070901091E+02    0.13924E-03   -0.27240E-03   128   0.213E-01    0.551E-02
DAV:   7    -0.875070916161E+02   -0.15070E-05   -0.39574E-04    96   0.835E-02
  50 F= -.87507092E+02 E0= -.87485048E+02  d E =-.125311E+00
       N       E                     dE             d eps       ncg     rms          rms(c)
DAV:   1    -0.875268260830E+02   -0.19736E-01   -0.13599E+01   112   0.308E+01    0.111E+00
DAV:   2    -0.876361572089E+02   -0.10933E+00   -0.13655E+00    96   0.640E+00    0.166E+00
DAV:   3    -0.876082587055E+02    0.27899E-01   -0.29303E-01   144   0.332E+00    0.790E-01
DAV:   4    -0.876069840732E+02    0.12746E-02   -0.93944E-02   128   0.147E+00    0.544E-01
DAV:   5    -0.876067989606E+02    0.18511E-03   -0.57588E-02   136   0.101E+00    0.420E-01
DAV:   6    -0.876055828661E+02    0.12161E-02   -0.18268E-02   136   0.573E-01    0.123E-01
DAV:   7    -0.876056930462E+02   -0.11018E-03   -0.26920E-03   136   0.185E-01    0.536E-02
DAV:   8    -0.876058477380E+02   -0.15469E-03   -0.25048E-04    80   0.657E-02    0.234E-02
DAV:   9    -0.876059796307E+02   -0.13189E-03   -0.67262E-05    72   0.344E-02    0.887E-03
DAV:  10    -0.876060654168E+02   -0.85786E-04   -0.20031E-05    72   0.211E-02
  51 F= -.87606065E+02 E0= -.87586566E+02  d E =-.989738E-01
       N       E                     dE             d eps       ncg     rms          rms(c)
DAV:   1    -0.876062231650E+02   -0.24353E-03   -0.14833E-01   112   0.324E+00    0.118E-01
DAV:   2    -0.876074995337E+02   -0.12764E-02   -0.15746E-02   112   0.698E-01    0.207E-01
DAV:   3    -0.876069920108E+02    0.50752E-03   -0.40301E-03   128   0.377E-01    0.750E-02
DAV:   4    -0.876071209646E+02   -0.12895E-03   -0.77528E-04    96   0.153E-01    0.510E-02
DAV:   5    -0.876071626063E+02   -0.41642E-04   -0.59457E-04    96   0.110E-01
  52 F= -.87607163E+02 E0= -.87588061E+02  d E =-.100071E+00
       N       E                     dE             d eps       ncg     rms          rms(c)
DAV:   1    -0.875982777524E+02    0.88432E-02   -0.10419E+01   120   0.310E+01    0.976E-01
DAV:   2    -0.877044873146E+02   -0.10621E+00   -0.12402E+00   112   0.587E+00    0.910E-01
DAV:   3    -0.877103896520E+02   -0.59023E-02   -0.21234E-01   144   0.233E+00    0.110E+00
DAV:   4    -0.876971386100E+02    0.13251E-01   -0.61065E-02   128   0.140E+00    0.308E-01
DAV:   5    -0.876997524808E+02   -0.26139E-02   -0.14681E-02   136   0.568E-01    0.256E-01
DAV:   6    -0.876997423866E+02    0.10094E-04   -0.11014E-02   136   0.484E-01    0.177E-01
DAV:   7    -0.876994969896E+02    0.24540E-03   -0.44129E-03   128   0.230E-01    0.599E-02
DAV:   8    -0.876995853449E+02   -0.88355E-04   -0.48883E-04    80   0.829E-02
  53 F= -.87699585E+02 E0= -.87681603E+02  d E =-.924227E-01
       N       E                     dE             d eps       ncg     rms          rms(c)
DAV:   1    -0.876664618790E+02    0.33035E-01   -0.54756E+00   120   0.226E+01    0.691E-01
DAV:   2    -0.877203672212E+02   -0.53905E-01   -0.63691E-01    96   0.419E+00    0.488E-01
DAV:   3    -0.877245167323E+02   -0.41495E-02   -0.71275E-02   144   0.143E+00    0.728E-01
DAV:   4    -0.877188620713E+02    0.56547E-02   -0.31623E-02   144   0.106E+00    0.213E-01
DAV:   5    -0.877201555889E+02   -0.12935E-02   -0.68503E-03   120   0.364E-01    0.137E-01
DAV:   6    -0.877201773437E+02   -0.21755E-04   -0.27773E-03   136   0.170E-01    0.547E-02
DAV:   7    -0.877202788916E+02   -0.10155E-03   -0.77695E-04    96   0.109E-01    0.548E-02
DAV:   8    -0.877202921667E+02   -0.13275E-04   -0.25022E-04    80   0.778E-02
  54 F= -.87720292E+02 E0= -.87703693E+02  d E =-.113130E+00
       N       E                     dE             d eps       ncg     rms          rms(c)
DAV:   1    -0.877014666058E+02    0.18812E-01   -0.13324E+01   112   0.293E+01    0.103E+00
DAV:   2    -0.877753254458E+02   -0.73859E-01   -0.10764E+00   120   0.527E+00    0.719E-01
DAV:   3    -0.877779394277E+02   -0.26140E-02   -0.12931E-01   144   0.202E+00    0.933E-01
DAV:   4    -0.877701098937E+02    0.78295E-02   -0.96801E-02   136   0.138E+00    0.496E-01
DAV:   5    -0.877693519872E+02    0.75791E-03   -0.22163E-02   128   0.793E-01    0.240E-01
DAV:   6    -0.877692301476E+02    0.12184E-03   -0.13014E-02   136   0.455E-01    0.175E-01
DAV:   7    -0.877689677876E+02    0.26236E-03   -0.41919E-03   136   0.222E-01    0.561E-02
DAV:   8    -0.877690847286E+02   -0.11694E-03   -0.39803E-04    80   0.617E-02    0.210E-02
DAV:   9    -0.877691751694E+02   -0.90441E-04   -0.58058E-05    64   0.318E-02
  55 F= -.87769175E+02 E0= -.87756742E+02  d E =-.488830E-01
       N       E                     dE             d eps       ncg     rms          rms(c)
DAV:   1    -0.877698604609E+02   -0.77573E-03   -0.51355E-01   112   0.577E+00    0.202E-01
DAV:   2    -0.877726622994E+02   -0.28018E-02   -0.41586E-02   112   0.103E+00    0.142E-01
DAV:   3    -0.877727482093E+02   -0.85910E-04   -0.46367E-03   144   0.350E-01    0.168E-01
DAV:   4    -0.877725441067E+02    0.20410E-03   -0.36558E-03   128   0.317E-01    0.107E-01
DAV:   5    -0.877725773344E+02   -0.33228E-04   -0.10743E-03    96   0.161E-01    0.529E-02
DAV:   6    -0.877725904755E+02   -0.13141E-04   -0.56425E-04   104   0.998E-02
  56 F= -.87772590E+02 E0= -.87759349E+02  d E =-.522983E-01
       N       E                     dE             d eps       ncg     rms          rms(c)
DAV:   1    -0.877639462950E+02    0.86310E-02   -0.88798E+00   104   0.251E+01    0.872E-01
DAV:   2    -0.878479936819E+02   -0.84047E-01   -0.92434E-01   128   0.502E+00    0.142E+00
DAV:   3    -0.878225198882E+02    0.25474E-01   -0.16305E-01   128   0.266E+00    0.518E-01
DAV:   4    -0.878211423812E+02    0.13775E-02   -0.20384E-02   120   0.773E-01    0.226E-01
DAV:   5    -0.878218765808E+02   -0.73420E-03   -0.58923E-03   136   0.339E-01    0.928E-02
DAV:   6    -0.878220691244E+02   -0.19254E-03   -0.24010E-03   128   0.200E-01    0.102E-01
DAV:   7    -0.878219432922E+02    0.12583E-03   -0.12650E-03   104   0.138E-01    0.373E-02
DAV:   8    -0.878220362673E+02   -0.92975E-04   -0.10958E-04    64   0.549E-02
  57 F= -.87822036E+02 E0= -.87808963E+02  d E =-.494458E-01
       N       E                     dE             d eps       ncg     rms          rms(c)
DAV:   1    -0.878198876815E+02    0.20556E-02   -0.72747E-01   104   0.719E+00    0.252E-01
DAV:   2    -0.878269952184E+02   -0.71075E-02   -0.78134E-02   136   0.147E+00    0.454E-01
DAV:   3    -0.878243942815E+02    0.26009E-02   -0.16168E-02   136   0.856E-01    0.151E-01
DAV:   4    -0.878245105966E+02   -0.11632E-03   -0.16566E-03   120   0.215E-01    0.684E-02
DAV:   5    -0.878247118485E+02   -0.20125E-03   -0.99537E-04   128   0.146E-01    0.712E-02
DAV:   6    -0.878246696190E+02    0.42230E-04   -0.71643E-04   104   0.112E-01
  58 F= -.87824670E+02 E0= -.87811555E+02  d E =-.520791E-01
       N       E                     dE             d eps       ncg     rms          rms(c)
DAV:   1    -0.878407652271E+02   -0.16053E-01   -0.69230E+00   104   0.204E+01    0.688E-01
DAV:   2    -0.878806097974E+02   -0.39845E-01   -0.54625E-01   112   0.372E+00    0.783E-01
DAV:   3    -0.878771571847E+02    0.34526E-02   -0.10757E-01   144   0.148E+00    0.534E-01
DAV:   4    -0.878744188899E+02    0.27383E-02   -0.32464E-02   128   0.103E+00    0.338E-01
DAV:   5    -0.878748591979E+02   -0.44031E-03   -0.28642E-02   136   0.729E-01    0.353E-01
DAV:   6    -0.878734371184E+02    0.14221E-02   -0.11430E-02   136   0.526E-01    0.764E-02
DAV:   7    -0.878737489504E+02   -0.31183E-03   -0.98652E-04   128   0.120E-01    0.388E-02
DAV:   8    -0.878738065549E+02   -0.57604E-04   -0.18406E-04    64   0.436E-02
  59 F= -.87873807E+02 E0= -.87860636E+02  d E =-.491369E-01
       N       E                     dE             d eps       ncg     rms          rms(c)
DAV:   1    -0.878598298477E+02    0.13919E-01   -0.53290E+00   104   0.179E+01    0.596E-01
[...]
DAV:   5    -0.944161933397E+02    0.83538E-04   -0.13643E-03   104   0.285E-01    0.425E-02
DAV:   6    -0.944162141990E+02   -0.20859E-04   -0.33004E-04    88   0.114E-01
 243 F= -.94416214E+02 E0= -.94416191E+02  d E =-.106646E-01
       N       E                     dE             d eps       ncg     rms          rms(c)
DAV:   1    -0.944113877107E+02    0.48056E-02   -0.90597E-01   104   0.905E+00    0.242E-01
DAV:   2    -0.944191250747E+02   -0.77374E-02   -0.90049E-02    96   0.155E+00    0.145E-01
DAV:   3    -0.944192485429E+02   -0.12347E-03   -0.41409E-03   152   0.375E-01    0.989E-02
DAV:   4    -0.944194060709E+02   -0.15753E-03   -0.18966E-03   120   0.314E-01    0.108E-01
DAV:   5    -0.944193504089E+02    0.55662E-04   -0.10198E-03   104   0.247E-01    0.412E-02
DAV:   6    -0.944193627897E+02   -0.12381E-04   -0.29460E-04    88   0.117E-01
 244 F= -.94419363E+02 E0= -.94419339E+02  d E =-.138132E-01
       N       E                     dE             d eps       ncg     rms          rms(c)
DAV:   1    -0.944168325944E+02    0.25178E-02   -0.12389E+00   112   0.109E+01    0.284E-01
DAV:   2    -0.944285961043E+02   -0.11764E-01   -0.13706E-01    96   0.195E+00    0.232E-01
DAV:   3    -0.944285944477E+02    0.16566E-05   -0.12073E-02   144   0.714E-01    0.187E-01
DAV:   4    -0.944283511514E+02    0.24330E-03   -0.39936E-03   128   0.448E-01    0.982E-02
DAV:   5    -0.944285666253E+02   -0.21547E-03   -0.16016E-03   120   0.295E-01    0.952E-02
DAV:   6    -0.944284883876E+02    0.78238E-04   -0.70686E-04   112   0.177E-01
 245 F= -.94428488E+02 E0= -.94428470E+02  d E =-.912560E-02
       N       E                     dE             d eps       ncg     rms          rms(c)
DAV:   1    -0.944231874962E+02    0.53791E-02   -0.79098E-01   112   0.870E+00    0.227E-01
DAV:   2    -0.944307050357E+02   -0.75175E-02   -0.87698E-02    96   0.156E+00    0.188E-01
DAV:   3    -0.944306876566E+02    0.17379E-04   -0.77538E-03   144   0.568E-01    0.147E-01
DAV:   4    -0.944305617232E+02    0.12593E-03   -0.25283E-03   128   0.353E-01    0.797E-02
DAV:   5    -0.944307117693E+02   -0.15005E-03   -0.10220E-03   112   0.240E-01    0.768E-02
DAV:   6    -0.944306707738E+02    0.40996E-04   -0.45622E-04   104   0.146E-01
 246 F= -.94430671E+02 E0= -.94430655E+02  d E =-.113080E-01
       N       E                     dE             d eps       ncg     rms          rms(c)
DAV:   1    -0.944320067470E+02   -0.12950E-02   -0.71892E-01   112   0.796E+00    0.220E-01
DAV:   2    -0.944381128065E+02   -0.61061E-02   -0.72208E-02    96   0.143E+00    0.184E-01
DAV:   3    -0.944380773550E+02    0.35451E-04   -0.72413E-03   136   0.557E-01    0.147E-01
DAV:   4    -0.944379516681E+02    0.12569E-03   -0.25383E-03   128   0.355E-01    0.745E-02
DAV:   5    -0.944380817768E+02   -0.13011E-03   -0.93685E-04   112   0.229E-01    0.711E-02
DAV:   6    -0.944380440687E+02    0.37708E-04   -0.41323E-04   104   0.138E-01
 247 F= -.94438044E+02 E0= -.94438027E+02  d E =-.737329E-02
       N       E                     dE             d eps       ncg     rms          rms(c)
DAV:   1    -0.944292792348E+02    0.88025E-02   -0.14983E+00   112   0.115E+01    0.316E-01
DAV:   2    -0.944421042424E+02   -0.12825E-01   -0.15074E-01    96   0.206E+00    0.265E-01
DAV:   3    -0.944420467738E+02    0.57469E-04   -0.15326E-02   136   0.803E-01    0.213E-01
DAV:   4    -0.944417330215E+02    0.31375E-03   -0.54329E-03   136   0.518E-01    0.108E-01
DAV:   5    -0.944419700044E+02   -0.23698E-03   -0.19799E-03   128   0.327E-01    0.103E-01
DAV:   6    -0.944418715056E+02    0.98499E-04   -0.84268E-04   112   0.191E-01
 248 F= -.94441872E+02 E0= -.94441853E+02  d E =-.112007E-01
       N       E                     dE             d eps       ncg     rms          rms(c)
DAV:   1    -0.944456654214E+02   -0.36954E-02   -0.43561E-01   112   0.530E+00    0.175E-01
DAV:   2    -0.944482302240E+02   -0.25648E-02   -0.32843E-02   104   0.936E-01    0.183E-01
DAV:   3    -0.944478359822E+02    0.39424E-03   -0.44042E-03   144   0.404E-01    0.937E-02
DAV:   4    -0.944478961953E+02   -0.60213E-04   -0.14399E-03   128   0.254E-01    0.811E-02
DAV:   5    -0.944478777991E+02    0.18396E-04   -0.79069E-04    96   0.214E-01
 249 F= -.94447878E+02 E0= -.94447860E+02  d E =-.600629E-02
       N       E                     dE             d eps       ncg     rms          rms(c)
DAV:   1    -0.944458615393E+02    0.20347E-02   -0.11391E+00   112   0.859E+00    0.285E-01
DAV:   2    -0.944526617053E+02   -0.68002E-02   -0.86510E-02   104   0.151E+00    0.303E-01
DAV:   3    -0.944515939782E+02    0.10677E-02   -0.12415E-02   144   0.688E-01    0.156E-01
DAV:   4    -0.944516930154E+02   -0.99037E-04   -0.39638E-03   128   0.425E-01    0.132E-01
DAV:   5    -0.944516240844E+02    0.68931E-04   -0.21111E-03   112   0.349E-01    0.729E-02
DAV:   6    -0.944516256167E+02   -0.15323E-05   -0.42971E-04   104   0.144E-01
 250 F= -.94451626E+02 E0= -.94451610E+02  d E =-.975411E-02
       N       E                     dE             d eps       ncg     rms          rms(c)
DAV:   1    -0.944539798023E+02   -0.23557E-02   -0.57517E-01   104   0.659E+00    0.196E-01
DAV:   2    -0.944583399856E+02   -0.43602E-02   -0.51706E-02    96   0.123E+00    0.211E-01
DAV:   3    -0.944579793299E+02    0.36066E-03   -0.71977E-03   144   0.557E-01    0.117E-01
DAV:   4    -0.944579668301E+02    0.12500E-04   -0.18102E-03   128   0.298E-01    0.810E-02
DAV:   5    -0.944580088810E+02   -0.42051E-04   -0.80034E-04   112   0.214E-01
 251 F= -.94458009E+02 E0= -.94457993E+02  d E =-.638326E-02
       N       E                     dE             d eps       ncg     rms          rms(c)
DAV:   1    -0.944509919905E+02    0.69748E-02   -0.15335E+00   104   0.108E+01    0.323E-01
DAV:   2    -0.944626831729E+02   -0.11691E-01   -0.13872E-01    96   0.201E+00    0.347E-01
DAV:   3    -0.944617131219E+02    0.97005E-03   -0.19753E-02   144   0.917E-01    0.194E-01
DAV:   4    -0.944616149070E+02    0.98215E-04   -0.50942E-03   136   0.497E-01    0.135E-01
DAV:   5    -0.944617060089E+02   -0.91102E-04   -0.22410E-03   128   0.361E-01    0.957E-02
DAV:   6    -0.944616501190E+02    0.55890E-04   -0.80031E-04   112   0.184E-01
 252 F= -.94461650E+02 E0= -.94461633E+02  d E =-.100245E-01
       N       E                     dE             d eps       ncg     rms          rms(c)
DAV:   1    -0.944606051031E+02    0.11009E-02   -0.87506E-01   112   0.824E+00    0.243E-01
DAV:   2    -0.944672196218E+02   -0.66145E-02   -0.79827E-02   112   0.153E+00    0.277E-01
DAV:   3    -0.944665517443E+02    0.66788E-03   -0.12374E-02   136   0.754E-01    0.144E-01
DAV:   4    -0.944665406376E+02    0.11107E-04   -0.27011E-03   128   0.376E-01    0.967E-02
DAV:   5    -0.944666217418E+02   -0.81104E-04   -0.11732E-03   112   0.259E-01    0.730E-02
DAV:   6    -0.944665994033E+02    0.22338E-04   -0.46597E-04   104   0.140E-01
 253 F= -.94466599E+02 E0= -.94466582E+02  d E =-.494928E-02
       N       E                     dE             d eps       ncg     rms          rms(c)
DAV:   1    -0.944653413915E+02    0.12804E-02   -0.29718E-01   112   0.481E+00    0.140E-01
DAV:   2    -0.944676185070E+02   -0.22771E-02   -0.27315E-02   120   0.897E-01    0.163E-01
DAV:   3    -0.944673799189E+02    0.23859E-03   -0.41387E-03   136   0.435E-01    0.831E-02
DAV:   4    -0.944673958931E+02   -0.15974E-04   -0.86766E-04   112   0.217E-01
 254 F= -.94467396E+02 E0= -.94467378E+02  d E =-.574577E-02
       N       E                     dE             d eps       ncg     rms          rms(c)
DAV:   1    -0.944685926138E+02   -0.12127E-02   -0.89179E-01   112   0.768E+00    0.241E-01
DAV:   2    -0.944734063313E+02   -0.48137E-02   -0.61811E-02   112   0.140E+00    0.247E-01
DAV:   3    -0.944731371566E+02    0.26917E-03   -0.10378E-02   152   0.795E-01    0.163E-01
DAV:   4    -0.944730159327E+02    0.12122E-03   -0.30723E-03   136   0.384E-01    0.821E-02
DAV:   5    -0.944731542696E+02   -0.13834E-03   -0.12469E-03   112   0.187E-01    0.729E-02
DAV:   6    -0.944730903291E+02    0.63941E-04   -0.52882E-04   104   0.123E-01
 255 F= -.94473090E+02 E0= -.94473070E+02  d E =-.569444E-02
       N       E                     dE             d eps       ncg     rms          rms(c)
DAV:   1    -0.944720006479E+02    0.11536E-02   -0.43269E-01   112   0.537E+00    0.160E-01
DAV:   2    -0.944743307813E+02   -0.23301E-02   -0.29890E-02   112   0.954E-01    0.160E-01
DAV:   3    -0.944742431424E+02    0.87639E-04   -0.49785E-03   144   0.514E-01    0.112E-01
DAV:   4    -0.944741692207E+02    0.73922E-04   -0.13663E-03   112   0.264E-01    0.505E-02
DAV:   5    -0.944742196165E+02   -0.50396E-04   -0.20808E-04    80   0.115E-01
 256 F= -.94474220E+02 E0= -.94474197E+02  d E =-.682372E-02
       N       E                     dE             d eps       ncg     rms          rms(c)
DAV:   1    -0.944767137628E+02   -0.25445E-02   -0.81453E-01    96   0.615E+00    0.216E-01
DAV:   2    -0.944791770585E+02   -0.24633E-02   -0.36532E-02   112   0.107E+00    0.222E-01
DAV:   3    -0.944789124282E+02    0.26463E-03   -0.87554E-03   144   0.671E-01    0.151E-01
DAV:   4    -0.944787372397E+02    0.17519E-03   -0.24735E-03   136   0.336E-01    0.552E-02
DAV:   5    -0.944788000237E+02   -0.62784E-04   -0.38379E-04    96   0.147E-01
 257 F= -.94478800E+02 E0= -.94478778E+02  d E =-.458041E-02
       N       E                     dE             d eps       ncg     rms          rms(c)
DAV:   1    -0.944788669800E+02   -0.12974E-03   -0.19051E-01    96   0.297E+00    0.110E-01
DAV:   2    -0.944794585323E+02   -0.59155E-03   -0.88034E-03   112   0.528E-01    0.116E-01
DAV:   3    -0.944793751651E+02    0.83367E-04   -0.22875E-03   136   0.340E-01    0.748E-02
DAV:   4    -0.944793587516E+02    0.16413E-04   -0.59002E-04   104   0.170E-01
 258 F= -.94479359E+02 E0= -.94479336E+02  d E =-.513914E-02
       N       E                     dE             d eps       ncg     rms          rms(c)
DAV:   1    -0.944807998141E+02   -0.14246E-02   -0.51295E-01    96   0.475E+00    0.181E-01
DAV:   2    -0.944824926349E+02   -0.16928E-02   -0.26114E-02   128   0.954E-01    0.195E-01
DAV:   3    -0.944821751229E+02    0.31751E-03   -0.55670E-03   144   0.577E-01    0.124E-01
DAV:   4    -0.944820972103E+02    0.77913E-04   -0.18411E-03   128   0.276E-01    0.690E-02
DAV:   5    -0.944821140887E+02   -0.16878E-04   -0.10208E-03   112   0.168E-01    0.504E-02
DAV:   6    -0.944820920425E+02    0.22046E-04   -0.25888E-04    88   0.900E-02
 259 F= -.94482092E+02 E0= -.94482069E+02  d E =-.273329E-02
       N       E                     dE             d eps       ncg     rms          rms(c)
DAV:   1    -0.944821133309E+02    0.75778E-06   -0.54708E-03    96   0.492E-01    0.194E-02
DAV:   2    -0.944821370824E+02   -0.23751E-04   -0.26822E-04    88   0.104E-01
 260 F= -.94482137E+02 E0= -.94482114E+02  d E =-.277833E-02
       N       E                     dE             d eps       ncg     rms          rms(c)
DAV:   1    -0.944822530571E+02   -0.13973E-03   -0.26831E-01    96   0.388E+00    0.140E-01
DAV:   2    -0.944839717500E+02   -0.17187E-02   -0.22322E-02   120   0.835E-01    0.178E-01
DAV:   3    -0.944836719826E+02    0.29977E-03   -0.47750E-03   144   0.477E-01    0.909E-02
DAV:   4    -0.944836132114E+02    0.58771E-04   -0.57724E-04    96   0.162E-01
 261 F= -.94483613E+02 E0= -.94483591E+02  d E =-.147613E-02
       N       E                     dE             d eps       ncg     rms          rms(c)
DAV:   1    -0.944836349339E+02    0.37049E-04   -0.29348E-03    96   0.409E-01    0.210E-02
DAV:   2    -0.944836624937E+02   -0.27560E-04   -0.30051E-04    88   0.993E-02
 262 F= -.94483662E+02 E0= -.94483640E+02  d E =-.152541E-02
       N       E                     dE             d eps       ncg     rms          rms(c)
DAV:   1    -0.944842598866E+02   -0.62495E-03   -0.20876E-01    96   0.317E+00    0.113E-01
DAV:   2    -0.944851217975E+02   -0.86191E-03   -0.12461E-02   112   0.596E-01    0.918E-02
DAV:   3    -0.944851827072E+02   -0.60910E-04   -0.21616E-03   136   0.342E-01    0.977E-02
DAV:   4    -0.944850796765E+02    0.10303E-03   -0.81756E-04   104   0.208E-01    0.319E-02
DAV:   5    -0.944851208710E+02   -0.41195E-04   -0.20502E-04    80   0.821E-02
 263 F= -.94485121E+02 E0= -.94485098E+02  d E =-.145838E-02
       N       E                     dE             d eps       ncg     rms          rms(c)
DAV:   1    -0.944850195278E+02    0.60149E-04   -0.67273E-02    96   0.181E+00    0.641E-02
DAV:   2    -0.944853037067E+02   -0.28418E-03   -0.39751E-03   112   0.335E-01    0.514E-02
DAV:   3    -0.944853228985E+02   -0.19192E-04   -0.61753E-04   120   0.192E-01
 264 F= -.94485323E+02 E0= -.94485300E+02  d E =-.166040E-02
       N       E                     dE             d eps       ncg     rms          rms(c)
DAV:   1    -0.944865143169E+02   -0.12106E-02   -0.16026E-01    96   0.255E+00    0.103E-01
DAV:   2    -0.944870509238E+02   -0.53661E-03   -0.78727E-03   128   0.477E-01    0.119E-01
DAV:   3    -0.944869124159E+02    0.13851E-03   -0.15958E-03   128   0.314E-01    0.657E-02
DAV:   4    -0.944869140351E+02   -0.16192E-05   -0.50227E-04    96   0.140E-01
 265 F= -.94486914E+02 E0= -.94486889E+02  d E =-.159114E-02
       N       E                     dE             d eps       ncg     rms          rms(c)
DAV:   1    -0.944869931269E+02   -0.80711E-04   -0.20838E-01    96   0.291E+00    0.120E-01
DAV:   2    -0.944878415598E+02   -0.84843E-03   -0.11718E-02   128   0.632E-01    0.169E-01
DAV:   3    -0.944874873400E+02    0.35422E-03   -0.31628E-03   128   0.373E-01    0.686E-02
DAV:   4    -0.944875009956E+02   -0.13656E-04   -0.40227E-04   104   0.124E-01
 266 F= -.94487501E+02 E0= -.94487474E+02  d E =-.217810E-02
       N       E                     dE             d eps       ncg     rms          rms(c)
DAV:   1    -0.944883391599E+02   -0.85182E-03   -0.43092E-02    96   0.132E+00    0.534E-02
DAV:   2    -0.944884798870E+02   -0.14073E-03   -0.20279E-03   120   0.240E-01    0.503E-02
DAV:   3    -0.944884565549E+02    0.23332E-04   -0.29317E-04    96   0.132E-01
 267 F= -.94488457E+02 E0= -.94488428E+02  d E =-.955559E-03
       N       E                     dE             d eps       ncg     rms          rms(c)
DAV:   1    -0.944885606535E+02   -0.80766E-04   -0.38700E-01    96   0.396E+00    0.151E-01
DAV:   2    -0.944896135154E+02   -0.10529E-02   -0.16648E-02   120   0.662E-01    0.111E-01
DAV:   3    -0.944896468993E+02   -0.33384E-04   -0.24193E-03   144   0.250E-01    0.103E-01
DAV:   4    -0.944895478339E+02    0.99065E-04   -0.12173E-03   120   0.185E-01    0.438E-02
DAV:   5    -0.944896154409E+02   -0.67607E-04   -0.66369E-04   104   0.183E-01
 268 F= -.94489615E+02 E0= -.94489578E+02  d E =-.211445E-02
       N       E                     dE             d eps       ncg     rms          rms(c)
DAV:   1    -0.944903968075E+02   -0.84897E-03   -0.63944E-02    96   0.176E+00    0.631E-02
DAV:   2    -0.944906702912E+02   -0.27348E-03   -0.35605E-03   136   0.316E-01    0.673E-02
DAV:   3    -0.944906403580E+02    0.29933E-04   -0.67446E-04   112   0.202E-01
 269 F= -.94490640E+02 E0= -.94490603E+02  d E =-.102492E-02
       N       E                     dE             d eps       ncg     rms          rms(c)
DAV:   1    -0.944894963104E+02    0.11740E-02   -0.57323E-01    96   0.526E+00    0.188E-01
DAV:   2    -0.944917289152E+02   -0.22326E-02   -0.30140E-02   128   0.951E-01    0.177E-01
DAV:   3    -0.944916229394E+02    0.10598E-03   -0.53834E-03   152   0.567E-01    0.150E-01
DAV:   4    -0.944914907235E+02    0.13222E-03   -0.15989E-03   120   0.270E-01    0.535E-02
DAV:   5    -0.944916084795E+02   -0.11776E-03   -0.87900E-04   120   0.150E-01    0.647E-02
DAV:   6    -0.944915466194E+02    0.61860E-04   -0.39626E-04    96   0.106E-01
 270 F= -.94491547E+02 E0= -.94491507E+02  d E =-.193118E-02
       N       E                     dE             d eps       ncg     rms          rms(c)
DAV:   1    -0.944921874338E+02   -0.57895E-03   -0.70892E-02    96   0.182E+00    0.571E-02
DAV:   2    -0.944924693870E+02   -0.28195E-03   -0.35385E-03   120   0.304E-01    0.376E-02
DAV:   3    -0.944924828174E+02   -0.13430E-04   -0.17554E-04    96   0.695E-02
 271 F= -.94492483E+02 E0= -.94492442E+02  d E =-.936198E-03
       N       E                     dE             d eps       ncg     rms          rms(c)
DAV:   1    -0.944910511952E+02    0.14182E-02   -0.63738E-01    96   0.546E+00    0.177E-01
DAV:   2    -0.944935589724E+02   -0.25078E-02   -0.32372E-02   128   0.910E-01    0.121E-01
DAV:   3    -0.944936106806E+02   -0.51708E-04   -0.20729E-03   144   0.312E-01    0.107E-01
DAV:   4    -0.944936189182E+02   -0.82377E-05   -0.18181E-03   112   0.314E-01    0.852E-02
DAV:   5    -0.944936086871E+02    0.10231E-04   -0.76805E-04    96   0.200E-01
 272 F= -.94493609E+02 E0= -.94493563E+02  d E =-.206207E-02
       N       E                     dE             d eps       ncg     rms          rms(c)
DAV:   1    -0.944944517321E+02   -0.83281E-03   -0.35063E-02   120   0.152E+00    0.578E-02
DAV:   2    -0.944946789348E+02   -0.22720E-03   -0.30023E-03   128   0.315E-01    0.612E-02
DAV:   3    -0.944946492134E+02    0.29721E-04   -0.49001E-04   104   0.178E-01
 273 F= -.94494649E+02 E0= -.94494603E+02  d E =-.104053E-02
       N       E                     dE             d eps       ncg     rms          rms(c)
DAV:   1    -0.944947691555E+02   -0.90221E-04   -0.73548E-02   112   0.220E+00    0.967E-02
DAV:   2    -0.944952537295E+02   -0.48457E-03   -0.69620E-03   128   0.447E-01    0.106E-01
DAV:   3    -0.944951003038E+02    0.15343E-03   -0.11848E-03   128   0.218E-01    0.504E-02
DAV:   4    -0.944951038356E+02   -0.35317E-05   -0.17979E-04    88   0.939E-02
 274 F= -.94495104E+02 E0= -.94495056E+02  d E =-.149515E-02
       N       E                     dE             d eps       ncg     rms          rms(c)
DAV:   1    -0.944957441574E+02   -0.64385E-03   -0.30338E-02   104   0.132E+00    0.603E-02
DAV:   2    -0.944960472574E+02   -0.30310E-03   -0.34422E-03   136   0.395E-01    0.114E-01
DAV:   3    -0.944958652935E+02    0.18196E-03   -0.12025E-03   112   0.245E-01    0.287E-02
DAV:   4    -0.944958858153E+02   -0.20522E-04   -0.10577E-04    72   0.628E-02
 275 F= -.94495886E+02 E0= -.94495839E+02  d E =-.781980E-03
       N       E                     dE             d eps       ncg     rms          rms(c)
DAV:   1    -0.944959379039E+02   -0.72610E-04   -0.62919E-02   104   0.191E+00    0.662E-02
DAV:   2    -0.944962897282E+02   -0.35182E-03   -0.44973E-03   120   0.363E-01    0.596E-02
DAV:   3    -0.944962797469E+02    0.99813E-05   -0.56676E-04   112   0.179E-01
 276 F= -.94496280E+02 E0= -.94496233E+02  d E =-.117591E-02
       N       E                     dE             d eps       ncg     rms          rms(c)
DAV:   1    -0.944969040719E+02   -0.61434E-03   -0.17764E-02    96   0.744E-01    0.525E-02
DAV:   2    -0.944969983107E+02   -0.94239E-04   -0.17579E-03   128   0.255E-01    0.899E-02
DAV:   3    -0.944968803749E+02    0.11794E-03   -0.77868E-04   104   0.196E-01    0.235E-02
DAV:   4    -0.944968971522E+02   -0.16777E-04   -0.86268E-05    72   0.691E-02
 277 F= -.94496897E+02 E0= -.94496848E+02  d E =-.617405E-03
       N       E                     dE             d eps       ncg     rms          rms(c)
DAV:   1    -0.944972094993E+02   -0.32912E-03   -0.38342E-02    96   0.107E+00    0.664E-02
DAV:   2    -0.944973150181E+02   -0.10552E-03   -0.25679E-03   136   0.307E-01    0.984E-02
DAV:   3    -0.944971831323E+02    0.13189E-03   -0.10325E-03   112   0.237E-01    0.355E-02
DAV:   4    -0.944971906305E+02   -0.74982E-05   -0.12561E-04    72   0.715E-02
 278 F= -.94497191E+02 E0= -.94497138E+02  d E =-.910884E-03
