unknown system                          
           1
    20.738775    0.000000    0.000000
     0.000000   20.180822    0.000000
     0.000000    0.000000   18.777092
   Ti   Al   B 
     2     4    12
Direct configuration=     1
   0.36654455  0.55149929  0.67003176
   0.52641933  0.58695047  0.62235237
   0.52021731  0.66437685  0.58203172
   0.56775801  0.30483329  0.28751218
   0.59716524  0.28208719  0.45234907
   0.54504214  0.52104506  0.59019655
   0.43845748  0.59254594  0.57468604
   0.45071392  0.38047437  0.49074780
   0.55273474  0.41461210  0.49274460
   0.33000738  0.50054097  0.43904244
   0.45611638  0.45594587  0.42928223
   0.57377320  0.44982835  0.60554534
   0.57934879  0.53982439  0.38476413
   0.31273640  0.46091982  0.58996016
   0.54088195  0.46142173  0.40053601
   0.51691509  0.60288845  0.50776422
   0.33902201  0.60080736  0.62513612
   0.39262961  0.61311821  0.54653144
Direct configuration=     2
   0.38796794  0.51708769  0.69821281
   0.51447116  0.61914463  0.67098033
   0.51705948  0.70183830  0.57182914
   0.56770528  0.30524411  0.28886707
   0.59543050  0.28570913  0.45221994
   0.54886002  0.48615401  0.54690598
   0.49460615  0.56857435  0.60311842
   0.45503179  0.38601472  0.48709741
   0.54946868  0.41601634  0.49327294
   0.33279207  0.49903591  0.44185836
   0.45960470  0.45258870  0.43091771
   0.58476280  0.41976244  0.60685155
   0.57591123  0.53686916  0.38747941
   0.31435060  0.46503860  0.58835568
   0.53797084  0.46185685  0.40763313
   0.51877760  0.59359507  0.50600632
   0.32056611  0.63507738  0.58659923
   0.33114658  0.63411232  0.52300876
Direct configuration=     3
   0.38648808  0.51946474  0.69626615
   0.51529650  0.61692075  0.66762125
   0.51727762  0.69925058  0.57253390
   0.56770892  0.30521573  0.28877348
   0.59555033  0.28545894  0.45222886
   0.54859630  0.48856418  0.54989636
   0.49072757  0.57023023  0.60115440
   0.45473353  0.38563201  0.48734957
   0.54969429  0.41591934  0.49323644
   0.33259972  0.49913987  0.44166385
   0.45936374  0.45282060  0.43080473
   0.58400367  0.42183930  0.60676133
   0.57614869  0.53707330  0.38729185
   0.31423910  0.46475409  0.58846652
   0.53817193  0.46182679  0.40714288
   0.51864894  0.59423703  0.50612775
   0.32184099  0.63271011  0.58926124
   0.33539364  0.63266211  0.52463364
Direct configuration=     4
   0.38537173  0.52125789  0.69479767
   0.51591911  0.61524316  0.66508732
   0.51744217  0.69729851  0.57306555
   0.56771167  0.30519432  0.28870288
   0.59564073  0.28527020  0.45223559
   0.54839735  0.49038230  0.55215217
   0.48780174  0.57147936  0.59967282
   0.45450853  0.38534331  0.48753978
   0.54986448  0.41584617  0.49320891
   0.33245461  0.49921830  0.44151711
   0.45918197  0.45299554  0.43071951
   0.58343102  0.42340599  0.60669326
   0.57632781  0.53722730  0.38715036
   0.31415498  0.46453947  0.58855012
   0.53832363  0.46180412  0.40677306
   0.51855189  0.59472129  0.50621935
   0.32280270  0.63092435  0.59126935
   0.33859744  0.63156814  0.52585937
Direct configuration=     5
   0.37892241  0.53161719  0.68631402
   0.51951600  0.60555139  0.65044830
   0.51839280  0.68602108  0.57613694
   0.56772755  0.30507065  0.28829500
   0.59616296  0.28417985  0.45227446
   0.54724801  0.50088595  0.56518442
   0.47089868  0.57869580  0.59111351
   0.45320867  0.38367543  0.48863870
   0.55084770  0.41542343  0.49304986
   0.33161630  0.49967139  0.44066940
   0.45813184  0.45400619  0.43022716
   0.58012270  0.43245707  0.60630004
   0.57736266  0.53811694  0.38633294
   0.31366904  0.46329954  0.58903313
   0.53919999  0.46167313  0.40463653
   0.51799120  0.59751898  0.50674855
   0.32835869  0.62060766  0.60287054
   0.35710636  0.62524805  0.53294067
Direct configuration=     6
   0.37273348  0.54155824  0.67817289
   0.52296767  0.59625093  0.63640034
   0.51930505  0.67519896  0.57908433
   0.56774278  0.30495197  0.28790359
   0.59666410  0.28313352  0.45231177
   0.54614507  0.51096550  0.57769049
   0.45467808  0.58562087  0.58289977
   0.45196130  0.38207490  0.48969325
   0.55179122  0.41501777  0.49289723
   0.33081184  0.50010618  0.43985592
   0.45712411  0.45497603  0.42975470
   0.57694795  0.44114271  0.60592269
   0.57835572  0.53897066  0.38554854
   0.31320272  0.46210968  0.58949665
   0.54004097  0.46154743  0.40258627
   0.51745314  0.60020372  0.50725639
   0.33369035  0.61070751  0.61400333
   0.37486799  0.61918313  0.53973605
Direct configuration=     7
   0.37649155  0.53552180  0.68311637
   0.52087173  0.60189839  0.64493059
   0.51875111  0.68177041  0.57729461
   0.56773353  0.30502403  0.28814127
   0.59635979  0.28376888  0.45228911
   0.54681480  0.50484496  0.57009651
   0.46452761  0.58141580  0.58788735
   0.45271873  0.38304678  0.48905291
   0.55121829  0.41526410  0.49298991
   0.33130033  0.49984216  0.44034989
   0.45773603  0.45438712  0.43004159
   0.57887573  0.43586858  0.60615182
   0.57775271  0.53845226  0.38602485
   0.31348588  0.46283219  0.58921519
   0.53953031  0.46162376  0.40383124
   0.51777986  0.59857348  0.50694802
   0.33045284  0.61671912  0.60724323
   0.36408271  0.62286589  0.53560973
Direct configuration=     8
   0.37815811  0.53314736  0.67944500
   0.53394530  0.60081257  0.67554523
   0.51655632  0.69713051  0.56535538
   0.56763035  0.30544575  0.28956689
   0.59467233  0.28731564  0.45239510
   0.53958848  0.51290195  0.55177322
   0.45460218  0.57514639  0.57572083
   0.45707771  0.38816035  0.48562305
   0.54868719  0.41692249  0.49384137
   0.33381071  0.49947961  0.44388194
   0.46094708  0.45092223  0.43218129
   0.58642155  0.41466280  0.60972081
   0.57459956  0.53559449  0.38893342
   0.31637242  0.46732605  0.58900910
   0.53701029  0.46207765  0.41029822
   0.51872984  0.59646878  0.51032916
   0.32809098  0.61682964  0.60856179
   0.35958316  0.62337545  0.52903239
Direct configuration=     9
   0.37756562  0.53399151  0.68075023
   0.52929743  0.60119860  0.66466122
   0.51733660  0.69166974  0.56959997
   0.56766703  0.30529583  0.28906006
   0.59527225  0.28605471  0.45235742
   0.54215755  0.51003756  0.55828745
   0.45813083  0.57737527  0.58004623
   0.45552802  0.38634239  0.48684242
   0.54958704  0.41633291  0.49353866
   0.33291823  0.49960850  0.44262624
   0.45980550  0.45215406  0.43142059
   0.58373889  0.42220180  0.60845198
   0.57572055  0.53661047  0.38789938
   0.31534621  0.46572841  0.58908237
   0.53790619  0.46191628  0.40799910
   0.51839211  0.59721704  0.50912711
   0.32893066  0.61679034  0.60809302
   0.36118282  0.62319429  0.53137075
Direct configuration=    10
   0.37769551  0.53380646  0.68046410
   0.53031634  0.60111397  0.66704721
   0.51716555  0.69286685  0.56866947
   0.56765899  0.30532869  0.28917116
   0.59514073  0.28633113  0.45236568
   0.54159436  0.51066549  0.55685940
   0.45735728  0.57688666  0.57909801
   0.45586775  0.38674092  0.48657511
   0.54938978  0.41646216  0.49360502
   0.33311388  0.49958025  0.44290151
   0.46005576  0.45188402  0.43158735
   0.58432698  0.42054910  0.60873013
   0.57547481  0.53638775  0.38812606
   0.31557118  0.46607865  0.58906631
   0.53770979  0.46195166  0.40850311
   0.51846614  0.59705300  0.50939062
   0.32874658  0.61679896  0.60819578
   0.36083215  0.62323400  0.53085813
Direct configuration=    11
   0.37704971  0.53625321  0.67321558
   0.52852996  0.59953638  0.66661336
   0.51656657  0.69137309  0.56652644
   0.56752071  0.30566018  0.29038361
   0.59366295  0.28938092  0.45258246
   0.54104067  0.50856006  0.55485676
   0.45601698  0.57846111  0.57815351
   0.45964446  0.38933832  0.48517477
   0.54663578  0.41663176  0.49386261
   0.33473048  0.49943301  0.44626284
   0.46172992  0.44981016  0.43285862
   0.58359219  0.41881472  0.60512182
   0.57333155  0.53439824  0.39069460
   0.31851796  0.47029644  0.58873217
   0.53711335  0.46269616  0.41251064
   0.51678080  0.60006563  0.51175823
   0.33091920  0.61256341  0.61054794
   0.36310032  0.62044693  0.53135822
Direct configuration=    12
   0.37617317  0.53957417  0.66337725
   0.52610534  0.59739513  0.66602450
   0.51575358  0.68934563  0.56361774
   0.56733302  0.30611009  0.29202924
   0.59165716  0.29352038  0.45287670
   0.54028915  0.50570239  0.55213859
   0.45419780  0.58059809  0.57687154
   0.46477054  0.39286373  0.48327410
   0.54289780  0.41686195  0.49421225
   0.33692466  0.49923317  0.45082512
   0.46400225  0.44699533  0.43458410
   0.58259487  0.41646066  0.60022431
   0.57042253  0.53169789  0.39418085
   0.32251760  0.47602119  0.58827864
   0.53630380  0.46370666  0.41795001
   0.51449330  0.60415462  0.51497177
   0.33386807  0.60681455  0.61374049
   0.36617889  0.61666407  0.53203698
Direct configuration=    13
   0.37703577  0.53978352  0.66031189
   0.52464487  0.59633212  0.66472990
   0.51543823  0.68899255  0.56301732
   0.56721740  0.30635881  0.29291214
   0.59057511  0.29573680  0.45310979
   0.53971317  0.50520913  0.55092752
   0.45324377  0.58165364  0.57621837
   0.46706530  0.39186891  0.48448301
   0.54148544  0.41637791  0.49499709
   0.33807008  0.49910782  0.45354205
   0.46429498  0.44791708  0.43352744
   0.58192396  0.41542522  0.59745233
   0.56931293  0.53100753  0.39584228
   0.32437842  0.47919585  0.58726473
   0.53638780  0.46414589  0.42001356
   0.51349562  0.60485857  0.51626206
   0.33455532  0.60547446  0.61295306
   0.36764537  0.61427390  0.53364965
Direct configuration=    14
   0.37911496  0.54028815  0.65292322
   0.52112460  0.59376985  0.66160943
   0.51467812  0.68814150  0.56157008
   0.56693871  0.30695830  0.29504027
   0.58796697  0.30107921  0.45367162
   0.53832485  0.50402019  0.54800839
   0.45094421  0.58419793  0.57464397
   0.47259653  0.38947103  0.48739693
   0.53808113  0.41521119  0.49688887
   0.34083096  0.49880568  0.46009087
   0.46500058  0.45013882  0.43098048
   0.58030681  0.41292942  0.59077083
   0.56663836  0.52934349  0.39984694
   0.32886368  0.48684797  0.58482085
   0.53659027  0.46520462  0.42498748
   0.51109084  0.60655534  0.51937214
   0.33621184  0.60224433  0.61105504
   0.37118014  0.60851270  0.53753680
Direct configuration=    15
   0.38130254  0.53929327  0.65205984
   0.51974669  0.59281111  0.65988198
   0.51448021  0.68871132  0.56166038
   0.56681846  0.30720799  0.29590729
   0.58689978  0.30321808  0.45397542
   0.53771743  0.50410721  0.54700343
   0.44996967  0.58509059  0.57398054
   0.47321270  0.38814033  0.48785644
   0.53844838  0.41480396  0.49824581
   0.34203780  0.49866946  0.46302805
   0.46431558  0.45063002  0.43048062
   0.57961112  0.41204034  0.58804709
   0.56599445  0.52953342  0.40117346
   0.33017873  0.48973637  0.58282561
   0.53709334  0.46515862  0.42661948
   0.51043876  0.60615806  0.52004950
   0.33545988  0.60238588  0.60928180
   0.37275803  0.60602367  0.53913746
Direct configuration=    16
   0.38786527  0.53630865  0.64946972
   0.51561296  0.58993487  0.65469963
   0.51388649  0.69042075  0.56193127
   0.56645773  0.30795707  0.29850835
   0.58369818  0.30963470  0.45488681
   0.53589518  0.50436827  0.54398857
   0.44704604  0.58776858  0.57199024
   0.47506123  0.38414824  0.48923498
   0.53955014  0.41358228  0.50231664
   0.34565831  0.49826078  0.47183958
   0.46226059  0.45210360  0.42898103
   0.57752404  0.40937311  0.57987585
   0.56406272  0.53010323  0.40515303
   0.33412390  0.49840158  0.57683992
   0.53860257  0.46502065  0.43151550
   0.50848254  0.60496625  0.52208158
   0.33320399  0.60281054  0.60396207
   0.37749167  0.59855656  0.54393943
Direct configuration=    17
   0.40099072  0.53033942  0.64428948
   0.50734549  0.58418239  0.64433492
   0.51269904  0.69383963  0.56247304
   0.56573627  0.30945522  0.30371046
   0.57729499  0.32246794  0.45670960
   0.53225069  0.50489039  0.53795884
   0.44119879  0.59312455  0.56800963
   0.47875828  0.37616406  0.49199207
   0.54175365  0.41113890  0.51045831
   0.35289934  0.49744343  0.48946264
   0.45815061  0.45505076  0.42598186
   0.57334989  0.40403864  0.56353339
   0.56019926  0.53124285  0.41311217
   0.34201422  0.51573200  0.56486852
   0.54162103  0.46474470  0.44130753
   0.50457009  0.60258262  0.52614575
   0.32869221  0.60365986  0.59332260
   0.38695896  0.58362235  0.55354337
Direct configuration=    18
   0.38976844  0.53544312  0.64871859
   0.51441418  0.58910076  0.65319675
   0.51371431  0.69091649  0.56200983
   0.56635312  0.30817430  0.29926265
   0.58276972  0.31149551  0.45515111
   0.53536674  0.50444398  0.54311426
   0.44619820  0.58854519  0.57141305
   0.47559730  0.38299054  0.48963476
   0.53986965  0.41322799  0.50349718
   0.34670825  0.49814227  0.47439491
   0.46166465  0.45253093  0.42854616
   0.57691879  0.40859962  0.57750621
   0.56350252  0.53026847  0.40630710
   0.33526799  0.50091447  0.57510408
   0.53904025  0.46498064  0.43293533
   0.50791524  0.60462063  0.52267088
   0.33254979  0.60293369  0.60241935
   0.37886442  0.59639111  0.54533199
Direct configuration=    19
   0.39135971  0.53471944  0.64809056
   0.51341187  0.58840336  0.65194019
   0.51357035  0.69133097  0.56207551
   0.56626566  0.30835593  0.29989333
   0.58199343  0.31305135  0.45537210
   0.53492490  0.50450727  0.54238325
   0.44548931  0.58919452  0.57093046
   0.47604551  0.38202258  0.48996901
   0.54013679  0.41293177  0.50448423
   0.34758612  0.49804317  0.47653144
   0.46116637  0.45288823  0.42818255
   0.57641274  0.40795289  0.57552493
   0.56303413  0.53040664  0.40727202
   0.33622457  0.50301553  0.57365272
   0.53940619  0.46494718  0.43412247
   0.50744091  0.60433165  0.52316360
   0.33200280  0.60303666  0.60112948
   0.38001219  0.59458056  0.54649632
Direct configuration=    20
   0.39301372  0.53407281  0.64912195
   0.51281731  0.58780567  0.64987211
   0.51352397  0.69261840  0.56263000
   0.56614728  0.30861851  0.30086496
   0.58079120  0.31517263  0.45588447
   0.53442011  0.50516765  0.54208706
   0.44710859  0.58953624  0.57155851
   0.47465759  0.38098908  0.48798445
   0.54213517  0.41246003  0.50484843
   0.34929086  0.49793328  0.48002086
   0.45975734  0.45249562  0.42943738
   0.57651352  0.40747757  0.57467265
   0.56292048  0.53218942  0.40802476
   0.33668676  0.50542001  0.56971630
   0.53924661  0.46305173  0.43516922
   0.50833701  0.60358977  0.52303583
   0.32953000  0.60270556  0.60154735
   0.37958603  0.59241572  0.54473788
Direct configuration=    21
   0.39546448  0.53311470  0.65065019
   0.51193634  0.58692007  0.64680781
   0.51345525  0.69452601  0.56345161
   0.56597187  0.30900758  0.30230465
   0.57900984  0.31831576  0.45664367
   0.53367217  0.50614614  0.54164818
   0.44950791  0.59004258  0.57248910
   0.47260108  0.37945772  0.48504389
   0.54509621  0.41176104  0.50538806
   0.35181681  0.49777044  0.48519120
   0.45766954  0.45191388  0.43129668
   0.57666285  0.40677328  0.57340981
   0.56275208  0.53483100  0.40914011
   0.33737159  0.50898276  0.56388363
   0.53901015  0.46024319  0.43672022
   0.50966478  0.60249053  0.52284651
   0.32586600  0.60221497  0.60216651
   0.37895458  0.58920804  0.54213235
Direct configuration=    22
   0.39513173  0.53315971  0.65097655
   0.51325115  0.58673591  0.64637546
   0.51339425  0.69558571  0.56398567
   0.56585351  0.30928589  0.30333689
   0.57780092  0.32005931  0.45716013
   0.53352193  0.50576231  0.54166182
   0.44885272  0.59039410  0.57266802
   0.47226061  0.38005665  0.48176731
   0.54534715  0.41068646  0.50320388
   0.35482992  0.49739367  0.48580348
   0.45553775  0.45102690  0.43398905
   0.57815793  0.40666362  0.57620261
   0.56214201  0.53543620  0.41045550
   0.33749693  0.51129092  0.56269142
   0.53843970  0.45949707  0.43572535
   0.51184840  0.60272092  0.52195411
   0.32510688  0.60102337  0.60275141
   0.37751005  0.58694099  0.54050555
Direct configuration=    23
   0.39439703  0.53325910  0.65169714
   0.51615416  0.58632931  0.64542085
   0.51325955  0.69792546  0.56516486
   0.56559218  0.30990037  0.30561599
   0.57513170  0.32390895  0.45830045
   0.53319022  0.50491483  0.54169193
   0.44740608  0.59117024  0.57306306
   0.47150889  0.38137903  0.47453282
   0.54590122  0.40831386  0.49838135
   0.36148267  0.49656177  0.48715533
   0.45083089  0.44906852  0.43993363
   0.58145894  0.40642149  0.58236895
   0.56079503  0.53677243  0.41335979
   0.33777366  0.51638717  0.56005908
   0.53718020  0.45784968  0.43352873
   0.51666970  0.60322961  0.51998375
   0.32343080  0.59839241  0.60404281
   0.37432063  0.58193548  0.53691367
Direct configuration=    24
   0.39328769  0.53400791  0.65180243
   0.51790187  0.58640469  0.64501766
   0.51304075  0.69857257  0.56574288
   0.56540075  0.31027754  0.30705894
   0.57402236  0.32444326  0.45817893
   0.53313176  0.50310416  0.54128464
   0.44606553  0.59243038  0.57183095
   0.47253458  0.38149198  0.47054013
   0.54683419  0.40801143  0.50070443
   0.36709009  0.49555050  0.48622851
   0.44688078  0.44982436  0.44309916
   0.58211002  0.40664897  0.58316955
   0.55909338  0.53646345  0.41594799
   0.33599390  0.51758519  0.56000155
   0.53559554  0.45878122  0.43105656
   0.51920412  0.60360668  0.51947773
   0.32421416  0.59627941  0.60491756
   0.37408207  0.58023601  0.53515460
Direct configuration=    25
   0.39078113  0.53569988  0.65204036
   0.52185087  0.58657502  0.64410665
   0.51254638  0.70003472  0.56704894
   0.56496819  0.31112976  0.31031933
   0.57151579  0.32565052  0.45790433
   0.53299967  0.49901290  0.54036433
   0.44303652  0.59527770  0.56904696
   0.47485217  0.38174722  0.46151854
   0.54894228  0.40732807  0.50595349
   0.37976017  0.49326549  0.48413433
   0.43795542  0.45153220  0.45025176
   0.58358116  0.40716297  0.58497853
   0.55524846  0.53576531  0.42179609
   0.33197248  0.52029217  0.55987154
   0.53201496  0.46088607  0.42547064
   0.52493069  0.60445869  0.51833437
   0.32598420  0.59150503  0.60689406
   0.37354302  0.57639600  0.53117994
Direct configuration=    26
   0.39127898  0.53536382  0.65199310
   0.52106652  0.58654119  0.64428759
   0.51264457  0.69974431  0.56678953
   0.56505410  0.31096049  0.30967176
   0.57201365  0.32541074  0.45795887
   0.53302591  0.49982550  0.54054712
   0.44363814  0.59471217  0.56959991
   0.47439185  0.38169652  0.46331040
   0.54852357  0.40746380  0.50491092
   0.37724365  0.49371934  0.48455027
   0.43972817  0.45119299  0.44883112
   0.58328896  0.40706088  0.58461923
   0.55601213  0.53590397  0.42063455
   0.33277121  0.51975451  0.55989736
   0.53272613  0.46046801  0.42658011
   0.52379328  0.60428946  0.51856146
   0.32563263  0.59245331  0.60650149
   0.37365009  0.57715870  0.53196938
Direct configuration=    27
   0.39144927  0.53596362  0.65217194
   0.52124304  0.58692183  0.64165642
   0.51235254  0.69954393  0.56723070
   0.56473142  0.31144654  0.31129504
   0.57112839  0.32424295  0.45653012
   0.53234620  0.49916106  0.54036240
   0.44371578  0.59636305  0.56816701
   0.47725898  0.38256056  0.46002362
   0.54843977  0.40868635  0.50673541
   0.38080361  0.49471299  0.48719808
   0.43680000  0.45220906  0.45164083
   0.58323210  0.40772388  0.58387065
   0.55353233  0.53631221  0.42455678
   0.32996425  0.51717352  0.55769312
   0.53030658  0.45988598  0.42703204
   0.52618102  0.60336694  0.51885374
   0.32673038  0.59014095  0.60615554
   0.37626789  0.57730430  0.53004076
Direct configuration=    28
   0.39158177  0.53643034  0.65231109
   0.52138039  0.58721801  0.63960906
   0.51212530  0.69938801  0.56757398
   0.56448033  0.31182473  0.31255814
   0.57043955  0.32333428  0.45541838
   0.53181731  0.49864404  0.54021866
   0.44377620  0.59764763  0.56705204
   0.47948995  0.38323289  0.45746612
   0.54837457  0.40963764  0.50815508
   0.38357368  0.49548616  0.48925838
   0.43452154  0.45299968  0.45382711
   0.58318785  0.40823977  0.58328817
   0.55160276  0.53662986  0.42760873
   0.32778012  0.51516521  0.55597797
   0.52842388  0.45943309  0.42738369
   0.52803896  0.60264911  0.51908117
   0.32758455  0.58834166  0.60588636
   0.37830485  0.57741760  0.52854006
Direct configuration=    29
   0.39259415  0.53654434  0.65206615
   0.52109984  0.58775029  0.63680025
   0.51184349  0.69894788  0.56781618
   0.56412927  0.31230116  0.31381916
   0.56964718  0.32251213  0.45438982
   0.53072661  0.49909465  0.54067094
   0.44479441  0.59914883  0.56640808
   0.48161514  0.38503402  0.45500966
   0.54802329  0.40968096  0.50788734
   0.38365148  0.49809016  0.49328896
   0.43492376  0.45159991  0.45499854
   0.58319612  0.40899266  0.58282929
   0.54918903  0.53708656  0.43145132
   0.32694045  0.51407083  0.55362711
   0.52650685  0.45898707  0.42882657
   0.53001998  0.60114750  0.51923339
   0.32805612  0.58633126  0.60430342
   0.37952640  0.57639951  0.52778801
Direct configuration=    30
   0.39368308  0.53666695  0.65180268
   0.52079807  0.58832282  0.63377903
   0.51154038  0.69847446  0.56807669
   0.56375167  0.31281361  0.31517554
   0.56879488  0.32162781  0.45328348
   0.52955343  0.49957934  0.54115743
   0.44588963  0.60076356  0.56571542
   0.48390105  0.38697136  0.45236743
   0.54764544  0.40972756  0.50759935
   0.38373516  0.50089108  0.49762434
   0.43535639  0.45009427  0.45625857
   0.58320501  0.40980248  0.58233571
   0.54659276  0.53757780  0.43558451
   0.32603728  0.51289369  0.55109846
   0.52444485  0.45850733  0.43037857
   0.53215081  0.59953234  0.51939713
   0.32856334  0.58416884  0.60260077
   0.38084032  0.57530443  0.52697908
Direct configuration=    31
   0.39508766  0.53661696  0.65066603
   0.52104760  0.58897574  0.63280119
   0.51131681  0.69807575  0.56794814
   0.56339330  0.31321995  0.31563674
   0.56832141  0.32139683  0.45319255
   0.52832291  0.49967471  0.54253946
   0.44644232  0.60163132  0.56532380
   0.48445806  0.38774286  0.45096175
   0.54724092  0.40890318  0.50622165
   0.38427257  0.50003157  0.49786048
   0.43607808  0.44928039  0.45740759
   0.58328006  0.41048074  0.58217738
   0.54472628  0.53796051  0.43836592
   0.32616815  0.51414402  0.55089329
   0.52412799  0.45975952  0.43174666
   0.53339050  0.59797826  0.51850739
   0.32804358  0.58274794  0.60074479
   0.38076536  0.57509945  0.52821938
Direct configuration=    32
   0.39848709  0.53649599  0.64791506
   0.52165153  0.59055594  0.63043459
   0.51077571  0.69711078  0.56763703
   0.56252595  0.31420338  0.31675294
   0.56717551  0.32083782  0.45297249
   0.52534476  0.49990554  0.54588431
   0.44777995  0.60373153  0.56437597
   0.48580615  0.38961010  0.44755966
   0.54626188  0.40690800  0.50288730
   0.38557323  0.49795135  0.49843200
   0.43782474  0.44731059  0.46018849
   0.58346170  0.41212229  0.58179418
   0.54020896  0.53888677  0.44509760
   0.32648487  0.51717013  0.55039674
   0.52336111  0.46279014  0.43505777
   0.53639086  0.59421701  0.51635399
   0.32678563  0.57930902  0.59625287
   0.38058394  0.57460335  0.53122120
Direct configuration=    33
   0.39995675  0.53676261  0.64586146
   0.52267171  0.59155691  0.63049452
   0.51060608  0.69676979  0.56698342
   0.56198288  0.31476359  0.31694583
   0.56678505  0.32025697  0.45309835
   0.52349497  0.49820188  0.54837279
   0.44784811  0.60447272  0.56355932
   0.48625515  0.38920677  0.44549476
   0.54623965  0.40685561  0.50272544
   0.38606123  0.49640938  0.49846329
   0.43800060  0.44720767  0.46161553
   0.58329140  0.41285564  0.58079812
   0.53842125  0.54023574  0.44806424
   0.32686807  0.51715351  0.54897292
   0.52346212  0.46450168  0.43641171
   0.53756731  0.59289452  0.51477900
   0.32569363  0.57893915  0.59637494
   0.38127761  0.57467556  0.53219856
Direct configuration=    34
   0.40149209  0.53704115  0.64371609
   0.52373748  0.59260262  0.63055712
   0.51042887  0.69641357  0.56630060
   0.56141553  0.31534884  0.31714735
   0.56637714  0.31965015  0.45322983
   0.52156251  0.49642208  0.55097249
   0.44791931  0.60524704  0.56270618
   0.48672421  0.38878542  0.44333757
   0.54621644  0.40680088  0.50255634
   0.38657103  0.49479851  0.49849597
   0.43818432  0.44710015  0.46310634
   0.58311349  0.41362177  0.57975754
   0.53655363  0.54164500  0.45116346
   0.32726839  0.51713615  0.54748548
   0.52356765  0.46628971  0.43782615
   0.53879634  0.59151292  0.51313362
   0.32455284  0.57855275  0.59650246
   0.38200229  0.57475099  0.53321960
Direct configuration=    35
   0.40204088  0.53751383  0.64221595
   0.52462088  0.59315528  0.63088314
   0.51048118  0.69646922  0.56522294
   0.56093965  0.31580428  0.31690698
   0.56630362  0.31900421  0.45355472
   0.51984639  0.49480700  0.55305592
   0.44834222  0.60552387  0.56245205
   0.48691855  0.38856432  0.44203359
   0.54626037  0.40754055  0.50323464
   0.38610762  0.49449015  0.49922608
   0.43871216  0.44662888  0.46322350
   0.58300980  0.41383239  0.57869504
   0.53630988  0.54175714  0.45074373
   0.32755859  0.51623968  0.54583347
   0.52370551  0.46623900  0.43823072
   0.53884755  0.59275869  0.51460079
   0.32381837  0.57872180  0.59816155
   0.38266033  0.57466943  0.53293937
Direct configuration=    36
   0.40256263  0.53796321  0.64078974
   0.52546075  0.59368069  0.63119309
   0.51053091  0.69652212  0.56419838
   0.56048721  0.31623728  0.31667846
   0.56623371  0.31839010  0.45386359
   0.51821484  0.49327151  0.55503667
   0.44874429  0.60578706  0.56221044
   0.48710331  0.38835411  0.44079389
   0.54630213  0.40824376  0.50387952
   0.38566705  0.49419699  0.49992021
   0.43921400  0.44618085  0.46333489
   0.58291122  0.41403262  0.57768490
   0.53607814  0.54186375  0.45034468
   0.32783449  0.51538739  0.54426289
   0.52383658  0.46619079  0.43861535
   0.53889624  0.59394307  0.51599565
   0.32312009  0.57888251  0.59973888
   0.38328594  0.57459188  0.53267295
Direct configuration=    37
   0.40307512  0.53844364  0.63976225
   0.52625676  0.59404355  0.63148499
   0.51065762  0.69689277  0.56258137
   0.55984269  0.31685919  0.31630250
   0.56615358  0.31790765  0.45447498
   0.51599025  0.49260259  0.55704711
   0.44969184  0.60599721  0.56215110
   0.48767033  0.38817474  0.43972439
   0.54571913  0.40867208  0.50350797
   0.38655922  0.49316879  0.49971019
   0.43965826  0.44585513  0.46325940
   0.58327475  0.41411094  0.57717499
   0.53646276  0.54238693  0.45047805
   0.32690398  0.51628433  0.54450198
   0.52403318  0.46541887  0.43861976
   0.53832295  0.59476663  0.51781392
   0.32277724  0.57771573  0.60032428
   0.38343389  0.57441893  0.53229497
Direct configuration=    38
   0.40367719  0.53900803  0.63855517
   0.52719188  0.59446983  0.63182790
   0.51080646  0.69732819  0.56068175
   0.55908552  0.31758980  0.31586083
   0.56605945  0.31734090  0.45519323
   0.51337687  0.49181677  0.55940892
   0.45080500  0.60624408  0.56208138
   0.48833645  0.38796402  0.43846797
   0.54503424  0.40917525  0.50307148
   0.38760732  0.49196089  0.49946346
   0.44018017  0.44547250  0.46317072
   0.58370182  0.41420293  0.57657595
   0.53691459  0.54300155  0.45063473
   0.32581083  0.51733802  0.54478287
   0.52426414  0.46451204  0.43862494
   0.53764946  0.59573413  0.51994997
   0.32237447  0.57634502  0.60101198
   0.38360769  0.57421576  0.53185093
Direct configuration=    39
   0.40462148  0.53909544  0.63832502
   0.52819905  0.59499713  0.63241416
   0.51099030  0.69823063  0.55833327
   0.55807309  0.31859187  0.31555566
   0.56594486  0.31697019  0.45613180
   0.51011913  0.49155986  0.56138835
   0.45161210  0.60608790  0.56185479
   0.48918910  0.38768042  0.43722417
   0.54432099  0.40916419  0.50256051
   0.38743273  0.49183911  0.50071606
   0.44107279  0.44450270  0.46246738
   0.58419147  0.41437714  0.57590610
   0.53761795  0.54323230  0.45248557
   0.32575297  0.51823544  0.54431559
   0.52475547  0.46502577  0.43822941
   0.53665326  0.59521320  0.52081225
   0.32205561  0.57478778  0.60075564
   0.38388119  0.57412863  0.53173844
Direct configuration=    40
   0.40581824  0.53920623  0.63803335
   0.52947550  0.59566540  0.63315716
   0.51122328  0.69937433  0.55535692
   0.55678999  0.31986185  0.31516890
   0.56579964  0.31650037  0.45732131
   0.50599041  0.49123427  0.56389698
   0.45263499  0.60588996  0.56156762
   0.49026970  0.38732101  0.43564782
   0.54341706  0.40915018  0.50191294
   0.38721147  0.49168476  0.50230355
   0.44220404  0.44327363  0.46157601
   0.58481204  0.41459792  0.57505717
   0.53850936  0.54352475  0.45483125
   0.32567963  0.51937278  0.54372338
   0.52537815  0.46567685  0.43772813
   0.53539073  0.59455299  0.52190507
   0.32165150  0.57281419  0.60043077
   0.38422782  0.57401821  0.53159586
Direct configuration=    41
   0.40653018  0.53921432  0.63878154
   0.53029947  0.59639048  0.63349971
   0.51144717  0.70031182  0.55270273
   0.55545411  0.32122039  0.31531252
   0.56587032  0.31606968  0.45828662
   0.50262444  0.49056058  0.56515967
   0.45301697  0.60543040  0.56135173
   0.49151863  0.38712983  0.43395821
   0.54278297  0.40915929  0.50194516
   0.38824507  0.49072323  0.50333293
   0.44191390  0.44322596  0.46131594
   0.58478864  0.41520299  0.57383610
   0.53926944  0.54279538  0.45746343
   0.32592444  0.51866322  0.54144816
   0.52589290  0.46706586  0.43739414
   0.53444661  0.59352045  0.52216925
   0.32144698  0.57260360  0.60098528
   0.38501133  0.57443222  0.53227107
Direct configuration=    42
   0.40689927  0.53921851  0.63916943
   0.53072664  0.59676638  0.63367730
   0.51156324  0.70079785  0.55132671
   0.55476155  0.32192470  0.31538699
   0.56590697  0.31584640  0.45878707
   0.50087941  0.49021131  0.56581428
   0.45321499  0.60519214  0.56123981
   0.49216611  0.38703071  0.43308226
   0.54245424  0.40916402  0.50196186
   0.38878092  0.49022474  0.50386660
   0.44176349  0.44320125  0.46118111
   0.58477651  0.41551668  0.57320306
   0.53966349  0.54241725  0.45882803
   0.32605136  0.51829537  0.54026861
   0.52615976  0.46778597  0.43722099