       N       E                     dE             d eps       ncg     rms          rms(c)
DAV:   1     0.392913566684E+03    0.39291E+03   -0.16677E+04   128   0.552E+02
DAV:   2     0.606092061862E+02   -0.33230E+03   -0.32202E+03   160   0.163E+02
DAV:   3    -0.604556863578E+02   -0.12106E+03   -0.11757E+03   160   0.783E+01
DAV:   4    -0.783695496001E+02   -0.17914E+02   -0.17036E+02   128   0.326E+01
DAV:   5    -0.805785311950E+02   -0.22090E+01   -0.21763E+01   160   0.931E+00    0.295E+01
DAV:   6    -0.747981304917E+02    0.57804E+01   -0.53593E+02   160   0.488E+01    0.470E+01
DAV:   7    -0.511519736823E+02    0.23646E+02   -0.36738E+02   152   0.820E+01    0.158E+01
DAV:   8    -0.496697629979E+02    0.14822E+01   -0.72647E+01   152   0.193E+01    0.169E+01
DAV:   9    -0.466525216128E+02    0.30172E+01   -0.22496E+01   152   0.188E+01    0.104E+01
DAV:  10    -0.454446300364E+02    0.12079E+01   -0.65160E+00   152   0.638E+00    0.592E+00
DAV:  11    -0.452074979725E+02    0.23713E+00   -0.41888E+00   168   0.335E+00    0.574E+00
DAV:  12    -0.455595232580E+02   -0.35203E+00   -0.62317E+00   152   0.370E+00    0.739E+00
DAV:  13    -0.451217131479E+02    0.43781E+00   -0.12898E+00   144   0.309E+00    0.384E+00
DAV:  14    -0.451237921110E+02   -0.20790E-02   -0.19468E+00   160   0.265E+00    0.816E+00
DAV:  15    -0.449794220330E+02    0.14437E+00   -0.21556E+00   144   0.164E+00    0.247E+00
DAV:  16    -0.449811339948E+02   -0.17120E-02   -0.22599E-01   152   0.112E+00    0.929E-01
DAV:  17    -0.449858365400E+02   -0.47025E-02   -0.94598E-02   144   0.547E-01    0.171E+00
DAV:  18    -0.449973621134E+02   -0.11526E-01   -0.29593E-01   152   0.815E-01    0.232E+00
DAV:  19    -0.449954568101E+02    0.19053E-02   -0.11290E-02   144   0.308E-01    0.276E+00
DAV:  20    -0.449792338306E+02    0.16223E-01   -0.13498E-01   152   0.452E-01    0.322E-01
DAV:  21    -0.449948954135E+02   -0.15662E-01   -0.18841E-02   152   0.260E-01    0.103E+00
DAV:  22    -0.449948703019E+02    0.25112E-04   -0.15913E-02   152   0.196E-01    0.239E-01
DAV:  23    -0.449968787003E+02   -0.20084E-02   -0.65633E-04   112   0.736E-02    0.150E-01
DAV:  24    -0.450005218686E+02   -0.36432E-02   -0.36695E-03   128   0.101E-01    0.294E-01
DAV:  25    -0.450010763838E+02   -0.55452E-03   -0.48642E-04    80   0.543E-02    0.155E-01
DAV:  26    -0.450029443168E+02   -0.18679E-02   -0.46943E-04    88   0.449E-02    0.374E-02
DAV:  27    -0.450039577338E+02   -0.10134E-02   -0.84328E-05    64   0.293E-02    0.187E-02
DAV:  28    -0.450046460554E+02   -0.68832E-03   -0.12344E-04    56   0.223E-02    0.478E-02
DAV:  29    -0.450051392327E+02   -0.49318E-03   -0.34105E-05    48   0.162E-02    0.325E-02
DAV:  30    -0.450053583200E+02   -0.21909E-03   -0.48052E-05    48   0.121E-02    0.175E-02
DAV:  31    -0.450055821168E+02   -0.22380E-03   -0.17903E-05    48   0.103E-02    0.832E-03
DAV:  32    -0.450056877410E+02   -0.10562E-03   -0.15853E-05    48   0.746E-03    0.156E-02
DAV:  33    -0.450057568574E+02   -0.69116E-04   -0.77306E-06    48   0.613E-03
   1 F= -.45005757E+02 E0= -.44908751E+02  d E =-.450058E+02
       N       E                     dE             d eps       ncg     rms          rms(c)
DAV:   1     0.322432279616E+02    0.77249E+02   -0.59873E+03   112   0.343E+02    0.256E+01
DAV:   2    -0.666659535958E+02   -0.98909E+02   -0.13857E+03   136   0.112E+02    0.420E+01
DAV:   3    -0.473868588865E+02    0.19279E+02   -0.30654E+02   160   0.997E+01    0.234E+01
DAV:   4    -0.341598487591E+02    0.13227E+02   -0.34147E+01   144   0.200E+01    0.173E+01
DAV:   5    -0.336008612751E+02    0.55899E+00   -0.91994E+01   168   0.175E+01    0.242E+01
DAV:   6    -0.311060230759E+02    0.24948E+01   -0.52974E+01   160   0.188E+01    0.159E+01
DAV:   7    -0.330418881262E+02   -0.19359E+01   -0.17606E+01   160   0.101E+01    0.300E+01
DAV:   8    -0.311900251770E+02    0.18519E+01   -0.66038E+01   152   0.180E+01    0.113E+01
DAV:   9    -0.316889573445E+02   -0.49893E+00   -0.15402E+01   152   0.736E+00    0.114E+01
DAV:  10    -0.310700449597E+02    0.61891E+00   -0.30767E+00   152   0.367E+00    0.998E+00
DAV:  11    -0.310546123296E+02    0.15433E-01   -0.23787E+00   160   0.352E+00    0.142E+01
DAV:  12    -0.302800194583E+02    0.77459E+00   -0.36280E+00   160   0.300E+00    0.856E+00
DAV:  13    -0.296833143661E+02    0.59671E+00   -0.68081E-01   160   0.193E+00    0.683E+00
DAV:  14    -0.295347176155E+02    0.14860E+00   -0.20299E-01   168   0.984E-01    0.639E+00
DAV:  15    -0.294824665590E+02    0.52251E-01   -0.28551E-02   144   0.392E-01    0.609E+00
DAV:  16    -0.294287807028E+02    0.53686E-01   -0.19590E-02   168   0.276E-01    0.577E+00
DAV:  17    -0.293508297792E+02    0.77951E-01   -0.28849E-02   160   0.458E-01    0.523E+00
DAV:  18    -0.291713832034E+02    0.17945E+00   -0.67177E-01   168   0.170E+00    0.181E+00
DAV:  19    -0.291801809410E+02   -0.87977E-02   -0.97374E-02   144   0.606E-01    0.301E+00
DAV:  20    -0.292136497090E+02   -0.33469E-01   -0.10813E-01   168   0.404E-01    0.507E+00
DAV:  21    -0.292346574459E+02   -0.21008E-01   -0.24016E-02   160   0.274E-01    0.590E+00
DAV:  22    -0.292220883176E+02    0.12569E-01   -0.34023E-03   128   0.123E-01    0.561E+00
DAV:  23    -0.291979920177E+02    0.24096E-01   -0.36540E-02   152   0.208E-01    0.445E+00
DAV:  24    -0.292152368790E+02   -0.17245E-01   -0.63916E-03   128   0.151E-01    0.494E+00
DAV:  25    -0.292880169137E+02   -0.72780E-01   -0.32220E-01   136   0.101E+00    0.669E+00
DAV:  26    -0.292912863188E+02   -0.32694E-02   -0.15462E-02   152   0.423E-01    0.638E+00
DAV:  27    -0.292127385611E+02    0.78548E-01   -0.13328E-01   128   0.536E-01    0.511E+00
DAV:  28    -0.292259741449E+02   -0.13236E-01   -0.94800E-03   136   0.341E-01    0.489E+00
DAV:  29    -0.291851415585E+02    0.40833E-01   -0.43330E-02   160   0.329E-01    0.363E+00
DAV:  30    -0.291764310978E+02    0.87105E-02   -0.28027E-03   160   0.151E-01    0.344E+00
DAV:  31    -0.291486575073E+02    0.27774E-01   -0.43048E-02   144   0.335E-01    0.235E+00
DAV:  32    -0.291631234179E+02   -0.14466E-01   -0.49694E-03   152   0.217E-01    0.250E+00
DAV:  33    -0.291621974931E+02    0.92592E-03   -0.45032E-03   112   0.107E-01    0.213E+00
DAV:  34    -0.291612231445E+02    0.97435E-03   -0.36706E-04   104   0.581E-02    0.204E+00
DAV:  35    -0.291754882487E+02   -0.14265E-01   -0.18260E-02   112   0.303E-01    0.147E+00
DAV:  36    -0.291758435301E+02   -0.35528E-03   -0.20871E-03   152   0.147E-01    0.130E+00
DAV:  37    -0.291758869393E+02   -0.43409E-04   -0.22404E-02   128   0.198E-01    0.554E-01
DAV:  38    -0.291783181876E+02   -0.24312E-02   -0.12602E-03   136   0.111E-01    0.615E-01
DAV:  39    -0.291784946273E+02   -0.17644E-03   -0.51434E-03   112   0.111E-01    0.224E-01
DAV:  40    -0.291793206035E+02   -0.82598E-03   -0.16084E-03   120   0.852E-02    0.715E-02
DAV:  41    -0.291798181720E+02   -0.49757E-03   -0.30913E-04   104   0.484E-02    0.620E-02
DAV:  42    -0.291800129033E+02   -0.19473E-03   -0.11772E-04    80   0.333E-02    0.337E-02
DAV:  43    -0.291799531764E+02    0.59727E-04   -0.27020E-04    88   0.423E-02
   2 F= -.29179953E+02 E0= -.29092622E+02  d E =0.158258E+02
       N       E                     dE             d eps       ncg     rms          rms(c)
DAV:   1    -0.179614683289E+02    0.11219E+02   -0.25044E+03   128   0.293E+02    0.175E+01
DAV:   2    -0.755754878994E+02   -0.57614E+02   -0.63123E+02   136   0.856E+01    0.409E+01
DAV:   3    -0.616424474995E+02    0.13933E+02   -0.18557E+02   152   0.758E+01    0.107E+01
DAV:   4    -0.608790768638E+02    0.76337E+00   -0.32520E+01   152   0.154E+01    0.181E+01
DAV:   5    -0.606756925882E+02    0.20338E+00   -0.43208E+01   160   0.122E+01    0.103E+01
DAV:   6    -0.595840887770E+02    0.10916E+01   -0.10093E+01   160   0.653E+00    0.866E+00
DAV:   7    -0.593222703198E+02    0.26182E+00   -0.68016E+00   152   0.495E+00    0.827E+00
DAV:   8    -0.588628234099E+02    0.45945E+00   -0.23512E+00   152   0.370E+00    0.373E+00
DAV:   9    -0.588858949149E+02   -0.23072E-01   -0.15076E+00   152   0.280E+00    0.382E+00
DAV:  10    -0.588632517144E+02    0.22643E-01   -0.11864E+00   160   0.188E+00    0.268E+00
DAV:  11    -0.589032894942E+02   -0.40038E-01   -0.91121E-01   160   0.157E+00    0.400E+00
DAV:  12    -0.588526270020E+02    0.50662E-01   -0.27824E-01   152   0.869E-01    0.193E+00
DAV:  13    -0.588447828094E+02    0.78442E-02   -0.46200E-02   152   0.441E-01    0.725E-01
DAV:  14    -0.588526423412E+02   -0.78595E-02   -0.12230E-02   160   0.302E-01    0.285E-01
DAV:  15    -0.588575191538E+02   -0.48768E-02   -0.88169E-03   160   0.255E-01    0.309E-01
DAV:  16    -0.588592475865E+02   -0.17284E-02   -0.19564E-03   120   0.129E-01    0.194E-01
DAV:  17    -0.588605366400E+02   -0.12891E-02   -0.10685E-03   136   0.917E-02    0.101E-01
DAV:  18    -0.588617610832E+02   -0.12244E-02   -0.79633E-04   112   0.770E-02    0.553E-02
DAV:  19    -0.588624779889E+02   -0.71691E-03   -0.17115E-04    88   0.393E-02    0.567E-02
DAV:  20    -0.588633333948E+02   -0.85541E-03   -0.20950E-04    80   0.361E-02    0.399E-02
DAV:  21    -0.588638720100E+02   -0.53862E-03   -0.20680E-04    80   0.289E-02    0.441E-02
DAV:  22    -0.588640826365E+02   -0.21063E-03   -0.37303E-05    48   0.175E-02    0.191E-02
DAV:  23    -0.588642583454E+02   -0.17571E-03   -0.32980E-05    48   0.148E-02    0.985E-03
DAV:  24    -0.588643501918E+02   -0.91846E-04   -0.14312E-05    48   0.981E-03
   3 F= -.58864350E+02 E0= -.58753830E+02  d E =-.138586E+02
       N       E                     dE             d eps       ncg     rms          rms(c)
DAV:   1    -0.588680888187E+02   -0.38305E-02   -0.93652E-02   112   0.223E+00    0.129E-01
DAV:   2    -0.588770810049E+02   -0.89922E-02   -0.56901E-02   152   0.553E-01    0.162E+00
DAV:   3    -0.588666822111E+02    0.10399E-01   -0.64143E-02   144   0.363E-01    0.526E-01
DAV:   4    -0.588685251804E+02   -0.18430E-02   -0.10872E-02   144   0.190E-01    0.109E-01
DAV:   5    -0.588688326600E+02   -0.30748E-03   -0.13064E-03   112   0.858E-02    0.557E-02
DAV:   6    -0.588688124545E+02    0.20205E-04   -0.30060E-04    72   0.505E-02
   4 F= -.58868812E+02 E0= -.58758440E+02  d E =-.138631E+02
       N       E                     dE             d eps       ncg     rms          rms(c)
DAV:   1    -0.587397550865E+02    0.12908E+00   -0.21831E+01   112   0.332E+01    0.186E+00
DAV:   2    -0.604844618250E+02   -0.17447E+01   -0.14498E+01   152   0.790E+00    0.220E+01
DAV:   3    -0.590742524380E+02    0.14102E+01   -0.10510E+01   160   0.538E+00    0.546E+00
DAV:   4    -0.588981491016E+02    0.17610E+00   -0.25036E+00   152   0.240E+00    0.146E+00
DAV:   5    -0.588956537683E+02    0.24953E-02   -0.28255E-01   152   0.106E+00    0.952E-01
DAV:   6    -0.588900886028E+02    0.55652E-02   -0.63883E-02   144   0.653E-01    0.704E-01
DAV:   7    -0.588903096542E+02   -0.22105E-03   -0.35955E-02   152   0.540E-01    0.461E-01
DAV:   8    -0.588902585794E+02    0.51075E-04   -0.21440E-02   152   0.396E-01    0.297E-01
DAV:   9    -0.588899201601E+02    0.33842E-03   -0.80703E-03   152   0.192E-01    0.171E-01
DAV:  10    -0.588898279813E+02    0.92179E-04   -0.23435E-03   128   0.992E-02    0.865E-02
DAV:  11    -0.588898770973E+02   -0.49116E-04   -0.19676E-04    72   0.554E-02
   5 F= -.58889877E+02 E0= -.58782051E+02  d E =-.138841E+02
       N       E                     dE             d eps       ncg     rms          rms(c)
DAV:   1    -0.610633066050E+02   -0.21735E+01   -0.16080E+02   104   0.101E+02    0.540E+00
DAV:   2    -0.775234691266E+02   -0.16460E+02   -0.88857E+01   136   0.254E+01    0.394E+01
DAV:   3    -0.625841293865E+02    0.14939E+02   -0.18109E+01   136   0.227E+01    0.658E+00
DAV:   4    -0.625700212594E+02    0.14108E-01   -0.52757E+00   144   0.545E+00    0.729E+00
DAV:   5    -0.622782067391E+02    0.29181E+00   -0.28303E+00   144   0.367E+00    0.202E+00
DAV:   6    -0.622595221150E+02    0.18685E-01   -0.65240E-01   152   0.193E+00    0.158E+00
DAV:   7    -0.622448618253E+02    0.14660E-01   -0.28736E-01   152   0.128E+00    0.109E+00
DAV:   8    -0.622560484989E+02   -0.11187E-01   -0.24769E-01   152   0.757E-01    0.841E-01
DAV:   9    -0.622462645908E+02    0.97839E-02   -0.14154E-01   152   0.537E-01    0.732E-01
DAV:  10    -0.622473452765E+02   -0.10807E-02   -0.45900E-02   144   0.458E-01    0.630E-01
DAV:  11    -0.622449114845E+02    0.24338E-02   -0.76116E-03   144   0.215E-01    0.222E-01
DAV:  12    -0.622462437113E+02   -0.13322E-02   -0.15881E-03   128   0.104E-01    0.107E-01
DAV:  13    -0.622469212768E+02   -0.67757E-03   -0.39417E-04    80   0.689E-02    0.140E-01
DAV:  14    -0.622471353789E+02   -0.21410E-03   -0.29285E-04    96   0.515E-02    0.731E-02
DAV:  15    -0.622474224068E+02   -0.28703E-03   -0.72461E-05    72   0.342E-02    0.727E-02
DAV:  16    -0.622476413151E+02   -0.21891E-03   -0.20510E-04    96   0.327E-02    0.130E-02
DAV:  17    -0.622477202373E+02   -0.78922E-04   -0.26430E-05    56   0.226E-02
   6 F= -.62247720E+02 E0= -.62149423E+02  d E =-.335784E+01
       N       E                     dE             d eps       ncg     rms          rms(c)
DAV:   1    -0.586135631679E+02    0.36341E+01   -0.68903E+02   112   0.193E+02    0.106E+01
DAV:   2    -0.886937212827E+02   -0.30080E+02   -0.17965E+02   128   0.544E+01    0.421E+01
DAV:   3    -0.661214915940E+02    0.22572E+02   -0.41512E+01   144   0.409E+01    0.854E+00
DAV:   4    -0.652951645899E+02    0.82633E+00   -0.20253E+01   152   0.949E+00    0.102E+01
DAV:   5    -0.644058721625E+02    0.88929E+00   -0.81469E+00   144   0.818E+00    0.450E+00
DAV:   6    -0.642184234229E+02    0.18745E+00   -0.44618E+00   144   0.468E+00    0.501E+00
DAV:   7    -0.641521606464E+02    0.66263E-01   -0.38112E+00   144   0.339E+00    0.402E+00
DAV:   8    -0.640600474176E+02    0.92113E-01   -0.14959E+00   152   0.187E+00    0.162E+00
DAV:   9    -0.640503600565E+02    0.96874E-02   -0.36278E-01   160   0.936E-01    0.118E+00
DAV:  10    -0.640477156279E+02    0.26444E-02   -0.21366E-01   144   0.635E-01    0.667E-01
DAV:  11    -0.640466457716E+02    0.10699E-02   -0.47365E-02   136   0.366E-01    0.257E-01
DAV:  12    -0.640493723270E+02   -0.27266E-02   -0.11285E-02   152   0.261E-01    0.365E-01
DAV:  13    -0.640485238293E+02    0.84850E-03   -0.41081E-03   144   0.162E-01    0.113E-01
DAV:  14    -0.640496198421E+02   -0.10960E-02   -0.16017E-03   120   0.927E-02    0.213E-01
DAV:  15    -0.640498700949E+02   -0.25025E-03   -0.63008E-04    80   0.658E-02    0.933E-02
DAV:  16    -0.640504229285E+02   -0.55283E-03   -0.50313E-04    96   0.501E-02    0.220E-02
DAV:  17    -0.640507745690E+02   -0.35164E-03   -0.45953E-05    72   0.339E-02    0.175E-02
DAV:  18    -0.640510672793E+02   -0.29271E-03   -0.58562E-05    72   0.203E-02    0.100E-02
DAV:  19    -0.640513171083E+02   -0.24983E-03   -0.29651E-05    72   0.159E-02    0.847E-03
DAV:  20    -0.640514835783E+02   -0.16647E-03   -0.20451E-05    64   0.120E-02    0.808E-03
DAV:  21    -0.640516261991E+02   -0.14262E-03   -0.23259E-05    48   0.105E-02    0.266E-03
DAV:  22    -0.640517044589E+02   -0.78260E-04   -0.16432E-05    64   0.874E-03
   7 F= -.64051704E+02 E0= -.63957858E+02  d E =-.516183E+01
       N       E                     dE             d eps       ncg     rms          rms(c)
DAV:   1    -0.636169833087E+02    0.43464E+00   -0.17585E+02   112   0.105E+02    0.529E+00
DAV:   2    -0.656936701955E+02   -0.20767E+01   -0.26212E+01   112   0.218E+01    0.696E+00
DAV:   3    -0.669861822897E+02   -0.12925E+01   -0.20490E+01   152   0.790E+00    0.248E+01
DAV:   4    -0.646621662499E+02    0.23240E+01   -0.21550E+01   144   0.770E+00    0.363E+00
DAV:   5    -0.646492899497E+02    0.12876E-01   -0.18849E+00   152   0.288E+00    0.338E+00
DAV:   6    -0.646319635238E+02    0.17326E-01   -0.16191E+00   160   0.304E+00    0.361E+00
DAV:   7    -0.645927858671E+02    0.39178E-01   -0.16929E+00   144   0.213E+00    0.218E+00
DAV:   8    -0.645454450976E+02    0.47341E-01   -0.34031E-01   152   0.109E+00    0.156E+00
DAV:   9    -0.645434015747E+02    0.20435E-02   -0.97826E-02   152   0.588E-01    0.594E-01
DAV:  10    -0.645391744644E+02    0.42271E-02   -0.11704E-02   152   0.250E-01    0.382E-01
DAV:  11    -0.645395303292E+02   -0.35586E-03   -0.33261E-03   144   0.138E-01    0.302E-01
DAV:  12    -0.645412761662E+02   -0.17458E-02   -0.17268E-03   128   0.127E-01    0.226E-01
DAV:  13    -0.645431112237E+02   -0.18351E-02   -0.27535E-03   120   0.146E-01    0.104E-01
DAV:  14    -0.645431869483E+02   -0.75725E-04   -0.59792E-04   104   0.753E-02
   8 F= -.64543187E+02 E0= -.64446880E+02  d E =-.565331E+01
       N       E                     dE             d eps       ncg     rms          rms(c)
DAV:   1    -0.647112217041E+02   -0.16811E+00   -0.16055E+01   112   0.325E+01    0.163E+00
DAV:   2    -0.657412744086E+02   -0.10301E+01   -0.77234E+00   128   0.716E+00    0.168E+01
DAV:   3    -0.648528660519E+02    0.88841E+00   -0.91327E+00   152   0.438E+00    0.262E+00
DAV:   4    -0.648253546561E+02    0.27511E-01   -0.14206E+00   136   0.127E+00    0.174E+00
DAV:   5    -0.648062352023E+02    0.19119E-01   -0.50851E-01   144   0.150E+00    0.120E+00
DAV:   6    -0.647919232054E+02    0.14312E-01   -0.18837E-01   152   0.105E+00    0.529E-01
DAV:   7    -0.647945047826E+02   -0.25816E-02   -0.61813E-02   144   0.504E-01    0.517E-01
DAV:   8    -0.647919201423E+02    0.25846E-02   -0.28251E-02   160   0.278E-01    0.348E-01
DAV:   9    -0.647916544449E+02    0.26570E-03   -0.55626E-03   136   0.166E-01    0.137E-01
DAV:  10    -0.647920038711E+02   -0.34943E-03   -0.23852E-03   136   0.122E-01    0.707E-02
DAV:  11    -0.647920419635E+02   -0.38092E-04   -0.59183E-04    96   0.759E-02
   9 F= -.64792042E+02 E0= -.64694931E+02  d E =-.590216E+01
       N       E                     dE             d eps       ncg     rms          rms(c)
DAV:   1    -0.662329250386E+02   -0.14409E+01   -0.89891E+01   112   0.722E+01    0.307E+00
DAV:   2    -0.671460800410E+02   -0.91316E+00   -0.12117E+01    96   0.144E+01    0.566E+00
DAV:   3    -0.670113982018E+02    0.13468E+00   -0.49733E+00   152   0.549E+00    0.563E+00
DAV:   4    -0.668996373258E+02    0.11176E+00   -0.27688E+00   144   0.347E+00    0.444E+00
DAV:   5    -0.667884350458E+02    0.11120E+00   -0.15059E+00   152   0.251E+00    0.240E+00
DAV:   6    -0.667453086763E+02    0.43126E-01   -0.50780E-01   136   0.223E+00    0.107E+00
DAV:   7    -0.667496148753E+02   -0.43062E-02   -0.18504E-01   136   0.998E-01    0.607E-01
DAV:   8    -0.667446115231E+02    0.50034E-02   -0.61735E-02   144   0.515E-01    0.336E-01
DAV:   9    -0.667455684562E+02   -0.95693E-03   -0.10309E-02   152   0.259E-01    0.168E-01
DAV:  10    -0.667458551601E+02   -0.28670E-03   -0.46100E-03   144   0.160E-01    0.124E-01
DAV:  11    -0.667460217485E+02   -0.16659E-03   -0.17355E-03   128   0.966E-02    0.815E-02
DAV:  12    -0.667461951023E+02   -0.17335E-03   -0.24886E-04    80   0.535E-02    0.571E-02
DAV:  13    -0.667464195453E+02   -0.22444E-03   -0.16136E-04    72   0.409E-02    0.180E-02
DAV:  14    -0.667465742875E+02   -0.15474E-03   -0.58049E-05    72   0.255E-02    0.129E-02
DAV:  15    -0.667467143535E+02   -0.14007E-03   -0.48445E-05    72   0.191E-02    0.717E-03
DAV:  16    -0.667468421471E+02   -0.12779E-03   -0.30237E-05    72   0.145E-02    0.494E-03
DAV:  17    -0.667469531949E+02   -0.11105E-03   -0.22838E-05    72   0.117E-02    0.255E-03
DAV:  18    -0.667470206254E+02   -0.67430E-04   -0.14318E-05    72   0.869E-03
  10 F= -.66747021E+02 E0= -.66658209E+02  d E =-.195498E+01
       N       E                     dE             d eps       ncg     rms          rms(c)
DAV:   1    -0.670532085379E+02   -0.30626E+00   -0.12686E+02   112   0.834E+01    0.413E+00
DAV:   2    -0.678605788344E+02   -0.80737E+00   -0.13745E+01   120   0.170E+01    0.428E+00
DAV:   3    -0.682191996229E+02   -0.35862E+00   -0.11454E+01   144   0.527E+00    0.824E+00
DAV:   4    -0.679580667880E+02    0.26113E+00   -0.80436E+00   152   0.526E+00    0.609E+00
DAV:   5    -0.676821666825E+02    0.27590E+00   -0.34677E+00   144   0.404E+00    0.270E+00
DAV:   6    -0.675945486833E+02    0.87618E-01   -0.92442E-01   152   0.246E+00    0.134E+00
DAV:   7    -0.675909400563E+02    0.36086E-02   -0.23238E-01   128   0.119E+00    0.622E-01
DAV:   8    -0.675868243834E+02    0.41157E-02   -0.80564E-02   152   0.689E-01    0.427E-01
DAV:   9    -0.675873990860E+02   -0.57470E-03   -0.21197E-02   152   0.342E-01    0.251E-01
DAV:  10    -0.675877193836E+02   -0.32030E-03   -0.72969E-03   136   0.188E-01    0.127E-01
DAV:  11    -0.675882821232E+02   -0.56274E-03   -0.11223E-03   112   0.996E-02    0.523E-02
DAV:  12    -0.675885559190E+02   -0.27380E-03   -0.12807E-04    72   0.499E-02    0.323E-02
DAV:  13    -0.675888373651E+02   -0.28145E-03   -0.85997E-05    56   0.293E-02    0.202E-02
DAV:  14    -0.675890477533E+02   -0.21039E-03   -0.56196E-05    48   0.215E-02    0.914E-03
DAV:  15    -0.675893024516E+02   -0.25470E-03   -0.39312E-05    56   0.173E-02    0.806E-03
DAV:  16    -0.675895922149E+02   -0.28976E-03   -0.50036E-05    64   0.158E-02    0.662E-03
DAV:  17    -0.675897451412E+02   -0.15293E-03   -0.29571E-05    48   0.123E-02    0.388E-03
DAV:  18    -0.675898736235E+02   -0.12848E-03   -0.30603E-05    56   0.115E-02    0.291E-03
DAV:  19    -0.675899158731E+02   -0.42250E-04   -0.14391E-05    48   0.847E-03
  11 F= -.67589916E+02 E0= -.67505628E+02  d E =-.279787E+01
       N       E                     dE             d eps       ncg     rms          rms(c)
DAV:   1    -0.682017506614E+02   -0.61188E+00   -0.15259E+01   112   0.299E+01    0.143E+00
DAV:   2    -0.683757512210E+02   -0.17400E+00   -0.23071E+00   120   0.583E+00    0.312E+00
DAV:   3    -0.683175291659E+02    0.58222E-01   -0.20478E+00   152   0.213E+00    0.262E+00
DAV:   4    -0.682955205435E+02    0.22009E-01   -0.62242E-01   152   0.171E+00    0.192E+00
DAV:   5    -0.682731134235E+02    0.22407E-01   -0.36183E-01   144   0.120E+00    0.102E+00
DAV:   6    -0.682712403189E+02    0.18731E-02   -0.96383E-02   144   0.886E-01    0.519E-01
DAV:   7    -0.682697691794E+02    0.14711E-02   -0.25356E-02   136   0.436E-01    0.296E-01
DAV:   8    -0.682696349780E+02    0.13420E-03   -0.76026E-03   152   0.241E-01    0.191E-01
DAV:   9    -0.682696302101E+02    0.47679E-05   -0.21938E-03   136   0.119E-01    0.664E-02
DAV:  10    -0.682697777628E+02   -0.14755E-03   -0.40582E-04    80   0.603E-02    0.295E-02
DAV:  11    -0.682698779676E+02   -0.10020E-03   -0.75820E-05    48   0.353E-02    0.184E-02
DAV:  12    -0.682699216754E+02   -0.43708E-04   -0.24749E-05    48   0.205E-02
  12 F= -.68269922E+02 E0= -.68185329E+02  d E =-.680006E+00
       N       E                     dE             d eps       ncg     rms          rms(c)
DAV:   1    -0.686412439597E+02   -0.37137E+00   -0.72561E+01   104   0.640E+01    0.310E+00
DAV:   2    -0.694123818874E+02   -0.77114E+00   -0.11617E+01   112   0.129E+01    0.526E+00
DAV:   3    -0.691520133876E+02    0.26037E+00   -0.81737E+00   144   0.459E+00    0.428E+00
DAV:   4    -0.690418088271E+02    0.11020E+00   -0.19735E+00   144   0.363E+00    0.317E+00
DAV:   5    -0.689900108527E+02    0.51798E-01   -0.13179E+00   152   0.247E+00    0.267E+00
DAV:   6    -0.689554661518E+02    0.34545E-01   -0.64377E-01   144   0.185E+00    0.129E+00
DAV:   7    -0.689465078931E+02    0.89583E-02   -0.14976E-01   128   0.953E-01    0.533E-01
DAV:   8    -0.689445289029E+02    0.19790E-02   -0.45101E-02   152   0.506E-01    0.278E-01
DAV:   9    -0.689450060365E+02   -0.47713E-03   -0.70784E-03   152   0.235E-01    0.103E-01
DAV:  10    -0.689455166919E+02   -0.51066E-03   -0.10659E-03   120   0.110E-01    0.661E-02
DAV:  11    -0.689457597688E+02   -0.24308E-03   -0.28645E-04    72   0.597E-02    0.243E-02
DAV:  12    -0.689459407648E+02   -0.18100E-03   -0.90242E-05    56   0.354E-02    0.153E-02
DAV:  13    -0.689461200456E+02   -0.17928E-03   -0.41582E-05    48   0.238E-02    0.731E-03
DAV:  14    -0.689462723296E+02   -0.15228E-03   -0.22385E-05    56   0.152E-02    0.444E-03
DAV:  15    -0.689464351244E+02   -0.16279E-03   -0.23435E-05    48   0.115E-02    0.373E-03
DAV:  16    -0.689465841189E+02   -0.14899E-03   -0.25216E-05    64   0.108E-02    0.191E-03
DAV:  17    -0.689466597114E+02   -0.75592E-04   -0.17045E-05    48   0.886E-03
  13 F= -.68946660E+02 E0= -.68857801E+02  d E =-.135674E+01
       N       E                     dE             d eps       ncg     rms          rms(c)
DAV:   1    -0.705479414146E+02   -0.16014E+01   -0.12491E+01    96   0.215E+01    0.137E+00
DAV:   2    -0.705989591777E+02   -0.51018E-01   -0.11066E+00   128   0.423E+00    0.230E+00
DAV:   3    -0.705761664294E+02    0.22793E-01   -0.11356E+00   152   0.191E+00    0.193E+00
DAV:   4    -0.705723741786E+02    0.37923E-02   -0.72334E-01   144   0.116E+00    0.189E+00
DAV:   5    -0.705556416701E+02    0.16733E-01   -0.44499E-01   144   0.130E+00    0.154E+00
DAV:   6    -0.705426116294E+02    0.13030E-01   -0.22664E-01   152   0.993E-01    0.653E-01
DAV:   7    -0.705412439801E+02    0.13676E-02   -0.29455E-02   144   0.455E-01    0.170E-01
DAV:   8    -0.705413695189E+02   -0.12554E-03   -0.43365E-03   136   0.209E-01    0.100E-01
DAV:   9    -0.705414901039E+02   -0.12059E-03   -0.10317E-03   104   0.932E-02    0.369E-02
DAV:  10    -0.705416392184E+02   -0.14911E-03   -0.11512E-04    56   0.416E-02    0.178E-02
DAV:  11    -0.705417043758E+02   -0.65157E-04   -0.31232E-05    48   0.234E-02
  14 F= -.70541704E+02 E0= -.70452846E+02  d E =-.159504E+01
       N       E                     dE             d eps       ncg     rms          rms(c)
DAV:   1    -0.726701784343E+02   -0.21285E+01   -0.68651E+01    96   0.506E+01    0.307E+00
DAV:   2    -0.730964629214E+02   -0.42628E+00   -0.72839E+00   128   0.102E+01    0.545E+00
DAV:   3    -0.729598347465E+02    0.13663E+00   -0.58825E+00   152   0.532E+00    0.493E+00
DAV:   4    -0.727848387775E+02    0.17500E+00   -0.29452E+00   152   0.286E+00    0.273E+00
DAV:   5    -0.727183418500E+02    0.66497E-01   -0.93740E-01   136   0.260E+00    0.209E+00
DAV:   6    -0.727477414175E+02   -0.29400E-01   -0.12008E+00   144   0.223E+00    0.213E+00
DAV:   7    -0.726849450717E+02    0.62796E-01   -0.55865E-01   136   0.110E+00    0.533E-01
DAV:   8    -0.726865718096E+02   -0.16267E-02   -0.47165E-02   144   0.536E-01    0.369E-01
DAV:   9    -0.726859481686E+02    0.62364E-03   -0.15859E-02   136   0.307E-01    0.140E-01
DAV:  10    -0.726866153851E+02   -0.66722E-03   -0.20897E-03   128   0.145E-01    0.835E-02
DAV:  11    -0.726870353895E+02   -0.42000E-03   -0.32340E-04    96   0.708E-02    0.450E-02
DAV:  12    -0.726873071473E+02   -0.27176E-03   -0.17417E-04    72   0.377E-02    0.144E-02
DAV:  13    -0.726875405602E+02   -0.23341E-03   -0.62217E-05    64   0.223E-02    0.863E-03
DAV:  14    -0.726877816451E+02   -0.24108E-03   -0.43305E-05    64   0.184E-02    0.486E-03
DAV:  15    -0.726880034120E+02   -0.22177E-03   -0.67170E-05    72   0.157E-02    0.448E-03
DAV:  16    -0.726881082573E+02   -0.10485E-03   -0.18925E-05    56   0.105E-02    0.349E-03
DAV:  17    -0.726881932423E+02   -0.84985E-04   -0.20891E-05    64   0.950E-03
  15 F= -.72688193E+02 E0= -.72599972E+02  d E =-.374153E+01
       N       E                     dE             d eps       ncg     rms          rms(c)
DAV:   1    -0.724979408856E+02    0.19017E+00   -0.24707E+02    96   0.972E+01    0.566E+00
DAV:   2    -0.744356362513E+02   -0.19377E+01   -0.34559E+01   128   0.205E+01    0.685E+00
DAV:   3    -0.734239507304E+02    0.10117E+01   -0.82796E+00   144   0.102E+01    0.507E+00
DAV:   4    -0.731040680351E+02    0.31988E+00   -0.31491E+00   136   0.524E+00    0.498E+00
DAV:   5    -0.730934239659E+02    0.10644E-01   -0.38212E+00   136   0.385E+00    0.454E+00
DAV:   6    -0.729520727147E+02    0.14135E+00   -0.16739E+00   144   0.371E+00    0.243E+00
DAV:   7    -0.729452381579E+02    0.68346E-02   -0.13513E+00   144   0.190E+00    0.157E+00
DAV:   8    -0.728971963216E+02    0.48042E-01   -0.31169E-01   136   0.127E+00    0.699E-01
DAV:   9    -0.728948968260E+02    0.22995E-02   -0.30226E-02   128   0.645E-01    0.234E-01
DAV:  10    -0.728970299460E+02   -0.21331E-02   -0.14602E-02   136   0.268E-01    0.213E-01
DAV:  11    -0.728970162938E+02    0.13652E-04   -0.13652E-02   136   0.165E-01    0.173E-01
DAV:  12    -0.728970774225E+02   -0.61129E-04   -0.40132E-03    96   0.839E-02    0.744E-02
DAV:  13    -0.728976126886E+02   -0.53527E-03   -0.88655E-04    80   0.528E-02    0.537E-02
DAV:  14    -0.728979445441E+02   -0.33186E-03   -0.27715E-04    72   0.336E-02    0.124E-02
DAV:  15    -0.728983805294E+02   -0.43599E-03   -0.94797E-05    80   0.230E-02    0.602E-03
DAV:  16    -0.728987061523E+02   -0.32562E-03   -0.50189E-05    64   0.168E-02    0.443E-03
DAV:  17    -0.728989098033E+02   -0.20365E-03   -0.53613E-05    72   0.136E-02    0.301E-03
DAV:  18    -0.728990261902E+02   -0.11639E-03   -0.17730E-05    48   0.995E-03    0.155E-03
DAV:  19    -0.728990817675E+02   -0.55577E-04   -0.12894E-05    48   0.700E-03
  16 F= -.72899082E+02 E0= -.72802470E+02  d E =-.395242E+01
       N       E                     dE             d eps       ncg     rms          rms(c)
DAV:   1    -0.732879688210E+02   -0.38894E+00   -0.51876E+01    96   0.453E+01    0.248E+00
DAV:   2    -0.735856112472E+02   -0.29764E+00   -0.53488E+00   128   0.950E+00    0.458E+00
DAV:   3    -0.735958165318E+02   -0.10205E-01   -0.51448E+00   136   0.404E+00    0.476E+00
DAV:   4    -0.735226870996E+02    0.73129E-01   -0.26400E+00   152   0.319E+00    0.399E+00
DAV:   5    -0.733728826784E+02    0.14980E+00   -0.12660E+00   144   0.247E+00    0.905E-01
DAV:   6    -0.733839103889E+02   -0.11028E-01   -0.17139E-01   136   0.124E+00    0.826E-01
DAV:   7    -0.733737871711E+02    0.10123E-01   -0.11054E-01   136   0.785E-01    0.322E-01
DAV:   8    -0.733743709883E+02   -0.58382E-03   -0.12079E-02   136   0.336E-01    0.174E-01
DAV:   9    -0.733748191679E+02   -0.44818E-03   -0.55899E-03   136   0.135E-01    0.156E-01
DAV:  10    -0.733747003267E+02    0.11884E-03   -0.21750E-03   112   0.820E-02    0.373E-02
DAV:  11    -0.733748867895E+02   -0.18646E-03   -0.13716E-04    72   0.491E-02    0.206E-02
DAV:  12    -0.733749829719E+02   -0.96182E-04   -0.56732E-05    72   0.275E-02
  17 F= -.73374983E+02 E0= -.73282463E+02  d E =-.442832E+01
       N       E                     dE             d eps       ncg     rms          rms(c)
DAV:   1    -0.739979307645E+02   -0.62304E+00   -0.72904E+00   112   0.208E+01    0.140E+00
DAV:   2    -0.745619950679E+02   -0.56406E+00   -0.44368E+00   128   0.549E+00    0.837E+00
DAV:   3    -0.740357308345E+02    0.52626E+00   -0.33466E+00   144   0.427E+00    0.204E+00
DAV:   4    -0.740321927745E+02    0.35381E-02   -0.57763E-01   136   0.164E+00    0.887E-01
DAV:   5    -0.740285240248E+02    0.36687E-02   -0.63278E-02   128   0.929E-01    0.430E-01
DAV:   6    -0.740298895193E+02   -0.13655E-02   -0.41470E-02   128   0.516E-01    0.303E-01
DAV:   7    -0.740295732893E+02    0.31623E-03   -0.20231E-02   128   0.307E-01    0.248E-01
DAV:   8    -0.740289452961E+02    0.62799E-03   -0.80894E-03   136   0.135E-01    0.107E-01
DAV:   9    -0.740289706080E+02   -0.25312E-04   -0.12745E-03   104   0.747E-02    0.347E-02
DAV:  10    -0.740290491799E+02   -0.78572E-04   -0.12310E-04    72   0.425E-02
  18 F= -.74029049E+02 E0= -.73941607E+02  d E =-.654066E+00
       N       E                     dE             d eps       ncg     rms          rms(c)
DAV:   1    -0.748217820500E+02   -0.79281E+00   -0.63764E+01   112   0.615E+01    0.331E+00
DAV:   2    -0.773770786857E+02   -0.25553E+01   -0.19484E+01   128   0.144E+01    0.183E+01
DAV:   3    -0.754698867066E+02    0.19072E+01   -0.17012E+01   152   0.107E+01    0.457E+00
DAV:   4    -0.752250914282E+02    0.24480E+00   -0.25468E+00   144   0.421E+00    0.203E+00
DAV:   5    -0.752019251381E+02    0.23166E-01   -0.74433E-01   128   0.195E+00    0.249E+00
DAV:   6    -0.751887277057E+02    0.13197E-01   -0.89743E-01   144   0.113E+00    0.132E+00
DAV:   7    -0.751692442960E+02    0.19483E-01   -0.26345E-01   136   0.102E+00    0.703E-01
DAV:   8    -0.751633503043E+02    0.58940E-02   -0.82777E-02   136   0.646E-01    0.272E-01
DAV:   9    -0.751644921173E+02   -0.11418E-02   -0.44839E-03   136   0.254E-01    0.133E-01
DAV:  10    -0.751650937775E+02   -0.60166E-03   -0.20577E-03   120   0.122E-01    0.178E-01
DAV:  11    -0.751650790893E+02    0.14688E-04   -0.73555E-04    80   0.670E-02
  19 F= -.75165079E+02 E0= -.75090747E+02  d E =-.179010E+01
       N       E                     dE             d eps       ncg     rms          rms(c)
DAV:   1    -0.752354614663E+02   -0.70368E-01   -0.14494E+01   112   0.297E+01    0.145E+00
DAV:   2    -0.757216087610E+02   -0.48615E+00   -0.39009E+00   128   0.647E+00    0.784E+00
DAV:   3    -0.753156439738E+02    0.40596E+00   -0.29846E+00   144   0.369E+00    0.179E+00
DAV:   4    -0.753262781244E+02   -0.10634E-01   -0.46284E-01   144   0.162E+00    0.109E+00
DAV:   5    -0.753157292605E+02    0.10549E-01   -0.98605E-02   128   0.103E+00    0.504E-01
DAV:   6    -0.753200619108E+02   -0.43327E-02   -0.10493E-01   136   0.530E-01    0.763E-01
DAV:   7    -0.753150901510E+02    0.49718E-02   -0.57397E-02   144   0.320E-01    0.221E-01
DAV:   8    -0.753151432528E+02   -0.53102E-04   -0.95580E-03   128   0.241E-01    0.872E-02
DAV:   9    -0.753154098658E+02   -0.26661E-03   -0.54665E-04   112   0.896E-02    0.300E-02
DAV:  10    -0.753155236292E+02   -0.11376E-03   -0.87690E-05    72   0.406E-02    0.179E-02
DAV:  11    -0.753156010486E+02   -0.77419E-04   -0.42412E-05    64   0.238E-02
  20 F= -.75315601E+02 E0= -.75244300E+02  d E =-.194062E+01
       N       E                     dE             d eps       ncg     rms          rms(c)
DAV:   1    -0.758373130621E+02   -0.52179E+00   -0.17724E+01   112   0.381E+01    0.167E+00
DAV:   2    -0.760855891637E+02   -0.24828E+00   -0.30391E+00   144   0.732E+00    0.315E+00
DAV:   3    -0.760192149045E+02    0.66374E-01   -0.14689E+00   136   0.327E+00    0.289E+00
DAV:   4    -0.760008864925E+02    0.18328E-01   -0.98689E-01   144   0.142E+00    0.197E+00
DAV:   5    -0.759760497103E+02    0.24837E-01   -0.31474E-01   136   0.112E+00    0.953E-01
DAV:   6    -0.759686763930E+02    0.73733E-02   -0.11613E-01   144   0.891E-01    0.423E-01
DAV:   7    -0.759693660296E+02   -0.68964E-03   -0.11907E-02   120   0.442E-01    0.138E-01
DAV:   8    -0.759701209382E+02   -0.75491E-03   -0.34609E-03   136   0.202E-01    0.845E-02
DAV:   9    -0.759701541417E+02   -0.33203E-04   -0.10987E-03   104   0.110E-01    0.432E-02
DAV:  10    -0.759703069947E+02   -0.15285E-03   -0.21751E-04    72   0.481E-02    0.214E-02
DAV:  11    -0.759704222046E+02   -0.11521E-03   -0.55842E-05    72   0.299E-02    0.100E-02
DAV:  12    -0.759705197479E+02   -0.97543E-04   -0.25782E-05    56   0.202E-02
  21 F= -.75970520E+02 E0= -.75899897E+02  d E =-.654919E+00
       N       E                     dE             d eps       ncg     rms          rms(c)
DAV:   1    -0.755048495123E+02    0.46557E+00   -0.16287E+02   112   0.110E+02    0.482E+00
DAV:   2    -0.777924861007E+02   -0.22876E+01   -0.31895E+01   120   0.223E+01    0.824E+00
DAV:   3    -0.779853946378E+02   -0.19291E+00   -0.25538E+01   136   0.640E+00    0.146E+01
DAV:   4    -0.769556285711E+02    0.10298E+01   -0.13537E+01   136   0.679E+00    0.268E+00
DAV:   5    -0.768251530455E+02    0.13048E+00   -0.59066E-01   144   0.266E+00    0.168E+00
DAV:   6    -0.768490261985E+02   -0.23873E-01   -0.74194E-01   128   0.239E+00    0.227E+00
DAV:   7    -0.768014996944E+02    0.47527E-01   -0.31280E-01   136   0.191E+00    0.739E-01
DAV:   8    -0.768077722574E+02   -0.62726E-02   -0.43896E-02   136   0.592E-01    0.462E-01
DAV:   9    -0.768062064577E+02    0.15658E-02   -0.14781E-02   136   0.345E-01    0.220E-01
DAV:  10    -0.768070597206E+02   -0.85326E-03   -0.37792E-03   136   0.186E-01    0.151E-01
DAV:  11    -0.768079333156E+02   -0.87360E-03   -0.11885E-03   112   0.963E-02    0.138E-01
DAV:  12    -0.768085816010E+02   -0.64829E-03   -0.98056E-04    80   0.733E-02    0.718E-02
DAV:  13    -0.768088200492E+02   -0.23845E-03   -0.29623E-04    88   0.508E-02    0.345E-02
DAV:  14    -0.768091140171E+02   -0.29397E-03   -0.63778E-05    72   0.286E-02    0.158E-02
DAV:  15    -0.768094035115E+02   -0.28949E-03   -0.73190E-05    80   0.211E-02    0.743E-03
DAV:  16    -0.768096706388E+02   -0.26713E-03   -0.27995E-05    72   0.156E-02    0.671E-03
DAV:  17    -0.768098254214E+02   -0.15478E-03   -0.26560E-05    72   0.111E-02    0.548E-03
DAV:  18    -0.768099598044E+02   -0.13438E-03   -0.19547E-05    72   0.947E-03    0.349E-03
DAV:  19    -0.768100309045E+02   -0.71100E-04   -0.15089E-05    56   0.782E-03
  22 F= -.76810031E+02 E0= -.76743695E+02  d E =-.149443E+01
       N       E                     dE             d eps       ncg     rms          rms(c)
DAV:   1    -0.771118937502E+02   -0.30193E+00   -0.42252E+01   120   0.618E+01    0.262E+00
DAV:   2    -0.788898090916E+02   -0.17779E+01   -0.21026E+01   112   0.111E+01    0.967E+00
DAV:   3    -0.775466485357E+02    0.13432E+01   -0.91239E+00   136   0.407E+00    0.307E+00
DAV:   4    -0.775209396352E+02    0.25709E-01   -0.12373E+00   128   0.265E+00    0.140E+00
DAV:   5    -0.775000605702E+02    0.20879E-01   -0.17215E-01   144   0.134E+00    0.609E-01
DAV:   6    -0.775045642912E+02   -0.45037E-02   -0.39333E-02   136   0.590E-01    0.469E-01
DAV:   7    -0.775078373443E+02   -0.32731E-02   -0.55035E-02   136   0.755E-01    0.599E-01
DAV:   8    -0.775046611864E+02    0.31762E-02   -0.19933E-02   136   0.540E-01    0.187E-01
DAV:   9    -0.775049197770E+02   -0.25859E-03   -0.24205E-03   128   0.186E-01    0.659E-02
DAV:  10    -0.775052089020E+02   -0.28912E-03   -0.41588E-04    88   0.839E-02    0.340E-02
DAV:  11    -0.775053741682E+02   -0.16527E-03   -0.84312E-05    72   0.372E-02    0.327E-02
DAV:  12    -0.775055234094E+02   -0.14924E-03   -0.57523E-05    72   0.286E-02    0.743E-03
DAV:  13    -0.775056347680E+02   -0.11136E-03   -0.23252E-05    72   0.158E-02    0.366E-03
DAV:  14    -0.775057288876E+02   -0.94120E-04   -0.15911E-05    72   0.115E-02
  23 F= -.77505729E+02 E0= -.77438006E+02  d E =-.695698E+00
       N       E                     dE             d eps       ncg     rms          rms(c)
DAV:   1    -0.733233477471E+02    0.41823E+01   -0.41302E+02   120   0.170E+02    0.807E+00
DAV:   2    -0.790569101099E+02   -0.57336E+01   -0.65520E+01    96   0.375E+01    0.690E+00
DAV:   3    -0.799857491700E+02   -0.92884E+00   -0.27596E+01   152   0.109E+01    0.104E+01
DAV:   4    -0.789166337314E+02    0.10691E+01   -0.11362E+01   136   0.100E+01    0.338E+00
DAV:   5    -0.785895075733E+02    0.32713E+00   -0.82306E-01   144   0.352E+00    0.181E+00
DAV:   6    -0.785925068595E+02   -0.29993E-02   -0.55507E-01   136   0.219E+00    0.166E+00
DAV:   7    -0.785683134395E+02    0.24193E-01   -0.25877E-01   136   0.198E+00    0.717E-01
DAV:   8    -0.785828856381E+02   -0.14572E-01   -0.44824E-02   144   0.771E-01    0.518E-01
DAV:   9    -0.785791106095E+02    0.37750E-02   -0.32400E-02   144   0.419E-01    0.287E-01
DAV:  10    -0.785797566243E+02   -0.64601E-03   -0.12603E-02   128   0.240E-01    0.152E-01
DAV:  11    -0.785803383680E+02   -0.58174E-03   -0.17558E-03   104   0.110E-01    0.546E-02
DAV:  12    -0.785808833771E+02   -0.54501E-03   -0.29984E-04    80   0.587E-02    0.272E-02
DAV:  13    -0.785813488552E+02   -0.46548E-03   -0.12940E-04    72   0.339E-02    0.210E-02
DAV:  14    -0.785817791652E+02   -0.43031E-03   -0.10884E-04    80   0.257E-02    0.102E-02
DAV:  15    -0.785821854888E+02   -0.40632E-03   -0.52252E-05    72   0.190E-02    0.704E-03
DAV:  16    -0.785824334053E+02   -0.24792E-03   -0.49226E-05    80   0.142E-02    0.429E-03
DAV:  17    -0.785826019261E+02   -0.16852E-03   -0.22148E-05    72   0.114E-02    0.232E-03
DAV:  18    -0.785826879320E+02   -0.86006E-04   -0.16161E-05    72   0.808E-03
  24 F= -.78582688E+02 E0= -.78517884E+02  d E =-.177266E+01
       N       E                     dE             d eps       ncg     rms          rms(c)
DAV:   1    -0.785710666142E+02    0.11535E-01   -0.53496E+01   120   0.716E+01    0.296E+00
DAV:   2    -0.798135137878E+02   -0.12424E+01   -0.13662E+01   120   0.149E+01    0.682E+00
DAV:   3    -0.791869428867E+02    0.62657E+00   -0.76444E+00   120   0.607E+00    0.180E+00
DAV:   4    -0.792004791706E+02   -0.13536E-01   -0.49670E-01   144   0.237E+00    0.139E+00
DAV:   5    -0.791758584736E+02    0.24621E-01   -0.21247E-01   144   0.154E+00    0.771E-01
DAV:   6    -0.791778212054E+02   -0.19627E-02   -0.71358E-02   136   0.805E-01    0.574E-01
DAV:   7    -0.791747082966E+02    0.31129E-02   -0.29293E-02   144   0.687E-01    0.211E-01
DAV:   8    -0.791753912537E+02   -0.68296E-03   -0.43619E-03   136   0.238E-01    0.834E-02
DAV:   9    -0.791756150705E+02   -0.22382E-03   -0.64070E-04   112   0.114E-01    0.534E-02
DAV:  10    -0.791757900715E+02   -0.17500E-03   -0.22437E-04    88   0.553E-02    0.336E-02
DAV:  11    -0.791759002635E+02   -0.11019E-03   -0.93344E-05    72   0.349E-02    0.111E-02
DAV:  12    -0.791759846435E+02   -0.84380E-04   -0.24960E-05    72   0.210E-02
  25 F= -.79175985E+02 E0= -.79113038E+02  d E =-.593297E+00
       N       E                     dE             d eps       ncg     rms          rms(c)
DAV:   1    -0.788194645760E+02    0.35644E+00   -0.49961E+01   120   0.693E+01    0.308E+00
DAV:   2    -0.800507574685E+02   -0.12313E+01   -0.13768E+01   128   0.147E+01    0.658E+00
DAV:   3    -0.793797496392E+02    0.67101E+00   -0.77453E+00   136   0.612E+00    0.152E+00
DAV:   4    -0.793878566366E+02   -0.81070E-02   -0.26233E-01   128   0.173E+00    0.108E+00
DAV:   5    -0.793836267828E+02    0.42299E-02   -0.19866E-01   136   0.136E+00    0.898E-01
DAV:   6    -0.793746996565E+02    0.89271E-02   -0.58515E-02   136   0.793E-01    0.313E-01
DAV:   7    -0.793758996645E+02   -0.12000E-02   -0.10271E-02   144   0.412E-01    0.163E-01
DAV:   8    -0.793760309567E+02   -0.13129E-03   -0.26216E-03   136   0.239E-01    0.868E-02
DAV:   9    -0.793762664925E+02   -0.23554E-03   -0.46098E-04   104   0.110E-01    0.463E-02
DAV:  10    -0.793765335034E+02   -0.26701E-03   -0.11683E-04    80   0.484E-02    0.178E-02
DAV:  11    -0.793766501834E+02   -0.11668E-03   -0.28000E-05    72   0.333E-02    0.919E-03
DAV:  12    -0.793767906221E+02   -0.14044E-03   -0.35070E-05    80   0.187E-02    0.729E-03
DAV:  13    -0.793769014541E+02   -0.11083E-03   -0.14023E-05    72   0.150E-02    0.481E-03
DAV:  14    -0.793769871225E+02   -0.85668E-04   -0.10345E-05    72   0.916E-03
  26 F= -.79376987E+02 E0= -.79317603E+02  d E =-.794299E+00
       N       E                     dE             d eps       ncg     rms          rms(c)
DAV:   1    -0.794463691987E+02   -0.69468E-01   -0.74906E+01   120   0.851E+01    0.340E+00
DAV:   2    -0.815830212952E+02   -0.21367E+01   -0.22218E+01   104   0.195E+01    0.962E+00
DAV:   3    -0.804342282198E+02    0.11488E+01   -0.83882E+00   128   0.975E+00    0.218E+00
DAV:   4    -0.804313410017E+02    0.28872E-02   -0.67913E-01   136   0.310E+00    0.140E+00
DAV:   5    -0.804143795590E+02    0.16961E-01   -0.22728E-01   136   0.166E+00    0.965E-01
DAV:   6    -0.804161406690E+02   -0.17611E-02   -0.77969E-02   136   0.102E+00    0.561E-01
DAV:   7    -0.804124061000E+02    0.37346E-02   -0.26885E-02   136   0.684E-01    0.275E-01
DAV:   8    -0.804129334418E+02   -0.52734E-03   -0.59308E-03   136   0.284E-01    0.113E-01
DAV:   9    -0.804131667763E+02   -0.23333E-03   -0.13042E-03   120   0.108E-01    0.571E-02
DAV:  10    -0.804132472108E+02   -0.80434E-04   -0.54853E-04    96   0.706E-02
  27 F= -.80413247E+02 E0= -.80358782E+02  d E =-.103626E+01
       N       E                     dE             d eps       ncg     rms          rms(c)
DAV:   1    -0.780405480355E+02    0.23726E+01   -0.24478E+02   120   0.144E+02    0.690E+00
DAV:   2    -0.873017570430E+02   -0.92612E+01   -0.94993E+01   120   0.372E+01    0.254E+01
DAV:   3    -0.818850249801E+02    0.54167E+01   -0.44684E+01   128   0.272E+01    0.577E+00
DAV:   4    -0.813025369208E+02    0.58249E+00   -0.70920E+00   128   0.644E+00    0.279E+00
DAV:   5    -0.811741198422E+02    0.12842E+00   -0.67487E-01   128   0.231E+00    0.195E+00
DAV:   6    -0.811775196541E+02   -0.33998E-02   -0.60817E-01   136   0.263E+00    0.207E+00
DAV:   7    -0.811410430270E+02    0.36477E-01   -0.21487E-01   136   0.220E+00    0.804E-01
DAV:   8    -0.811574998158E+02   -0.16457E-01   -0.19008E-01   136   0.838E-01    0.822E-01
DAV:   9    -0.811558073192E+02    0.16925E-02   -0.24224E-01   128   0.830E-01    0.658E-01
DAV:  10    -0.811477596598E+02    0.80477E-02   -0.28639E-02   128   0.331E-01    0.240E-01
DAV:  11    -0.811479337549E+02   -0.17410E-03   -0.21674E-03   136   0.181E-01    0.118E-01
DAV:  12    -0.811481905540E+02   -0.25680E-03   -0.11301E-03   112   0.105E-01    0.445E-02
DAV:  13    -0.811486470037E+02   -0.45645E-03   -0.33057E-04    80   0.571E-02    0.435E-02
DAV:  14    -0.811489960256E+02   -0.34902E-03   -0.32323E-04    72   0.405E-02    0.178E-02
DAV:  15    -0.811492699748E+02   -0.27395E-03   -0.53844E-05    72   0.261E-02    0.107E-02
DAV:  16    -0.811494655955E+02   -0.19562E-03   -0.39942E-05    64   0.178E-02    0.879E-03
DAV:  17    -0.811496429189E+02   -0.17732E-03   -0.36384E-05    72   0.160E-02    0.355E-03
DAV:  18    -0.811497963977E+02   -0.15348E-03   -0.52280E-05    72   0.134E-02    0.583E-03
DAV:  19    -0.811498195586E+02   -0.23161E-04   -0.52080E-06    48   0.750E-03
  28 F= -.81149820E+02 E0= -.81102242E+02  d E =-.177283E+01
       N       E                     dE             d eps       ncg     rms          rms(c)
DAV:   1    -0.806924981993E+02    0.45730E+00   -0.12199E+02   120   0.102E+02    0.415E+00
DAV:   2    -0.834739162450E+02   -0.27814E+01   -0.30935E+01    96   0.232E+01    0.954E+00
DAV:   3    -0.821381364454E+02    0.13358E+01   -0.87905E+00   136   0.118E+01    0.207E+00
DAV:   4    -0.820650631264E+02    0.73073E-01   -0.70386E-01   128   0.303E+00    0.123E+00
DAV:   5    -0.820701391131E+02   -0.50760E-02   -0.18499E-01   136   0.213E+00    0.115E+00
DAV:   6    -0.820625105953E+02    0.76285E-02   -0.15560E-01   144   0.170E+00    0.557E-01
DAV:   7    -0.820620321458E+02    0.47845E-03   -0.47419E-02   136   0.650E-01    0.326E-01
DAV:   8    -0.820625288871E+02   -0.49674E-03   -0.17422E-02   144   0.437E-01    0.141E-01
DAV:   9    -0.820625791681E+02   -0.50281E-04   -0.30529E-03   128   0.148E-01    0.807E-02
DAV:  10    -0.820629045611E+02   -0.32539E-03   -0.11034E-03    96   0.819E-02    0.529E-02
DAV:  11    -0.820630474663E+02   -0.14291E-03   -0.72950E-04    72   0.482E-02    0.408E-02
DAV:  12    -0.820632296437E+02   -0.18218E-03   -0.31839E-04    72   0.358E-02    0.143E-02
DAV:  13    -0.820633846362E+02   -0.15499E-03   -0.56002E-05    72   0.232E-02    0.552E-03
DAV:  14    -0.820635583694E+02   -0.17373E-03   -0.31119E-05    72   0.148E-02    0.462E-03
DAV:  15    -0.820637188895E+02   -0.16052E-03   -0.43065E-05    80   0.118E-02    0.358E-03
DAV:  16    -0.820638023899E+02   -0.83500E-04   -0.11452E-05    72   0.843E-03
  29 F= -.82063802E+02 E0= -.82027934E+02  d E =-.913983E+00
       N       E                     dE             d eps       ncg     rms          rms(c)
DAV:   1    -0.815676671395E+02    0.49605E+00   -0.62958E+01   120   0.757E+01    0.274E+00
DAV:   2    -0.827316065410E+02   -0.11639E+01   -0.13749E+01   112   0.156E+01    0.552E+00
DAV:   3    -0.823138872607E+02    0.41772E+00   -0.38124E+00   152   0.621E+00    0.166E+00
DAV:   4    -0.822720321237E+02    0.41855E-01   -0.49037E-01   128   0.234E+00    0.100E+00
DAV:   5    -0.822688723799E+02    0.31597E-02   -0.10661E-01   144   0.158E+00    0.786E-01
DAV:   6    -0.822669950844E+02    0.18773E-02   -0.67427E-02   136   0.117E+00    0.376E-01
DAV:   7    -0.822673575078E+02   -0.36242E-03   -0.23483E-02   136   0.526E-01    0.227E-01
DAV:   8    -0.822674796139E+02   -0.12211E-03   -0.98648E-03   136   0.330E-01    0.128E-01
DAV:   9    -0.822675104504E+02   -0.30837E-04   -0.16811E-03   128   0.138E-01    0.506E-02
DAV:  10    -0.822676974860E+02   -0.18704E-03   -0.15969E-04    80   0.615E-02    0.218E-02
DAV:  11    -0.822678180384E+02   -0.12055E-03   -0.53335E-05    72   0.320E-02    0.849E-03
DAV:  12    -0.822679157564E+02   -0.97718E-04   -0.27192E-05    56   0.196E-02
  30 F= -.82267916E+02 E0= -.82236852E+02  d E =-.111810E+01
       N       E                     dE             d eps       ncg     rms          rms(c)
DAV:   1    -0.820593508624E+02    0.20847E+00   -0.78572E+01   120   0.877E+01    0.281E+00
DAV:   2    -0.830788276634E+02   -0.10195E+01   -0.11192E+01    96   0.171E+01    0.255E+00
DAV:   3    -0.830370467720E+02    0.41781E-01   -0.11832E+00   152   0.547E+00    0.153E+00
DAV:   4    -0.830064007086E+02    0.30646E-01   -0.21691E-01   144   0.222E+00    0.733E-01
DAV:   5    -0.830117166367E+02   -0.53159E-02   -0.75493E-02   136   0.118E+00    0.451E-01
DAV:   6    -0.830098961395E+02    0.18205E-02   -0.33257E-02   128   0.563E-01    0.179E-01
DAV:   7    -0.830102594653E+02   -0.36333E-03   -0.69214E-03   128   0.202E-01    0.137E-01
DAV:   8    -0.830105104770E+02   -0.25101E-03   -0.56960E-03   128   0.220E-01    0.163E-01
DAV:   9    -0.830103885463E+02    0.12193E-03   -0.15821E-03   120   0.150E-01    0.420E-02
DAV:  10    -0.830106286799E+02   -0.24013E-03   -0.21039E-04    72   0.533E-02    0.249E-02
DAV:  11    -0.830108097836E+02   -0.18110E-03   -0.71609E-05    72   0.322E-02    0.955E-03
DAV:  12    -0.830110068570E+02   -0.19707E-03   -0.35307E-05    56   0.218E-02    0.518E-03
DAV:  13    -0.830112237665E+02   -0.21691E-03   -0.33186E-05    64   0.154E-02    0.540E-03
DAV:  14    -0.830114068468E+02   -0.18308E-03   -0.29245E-05    64   0.126E-02    0.357E-03
DAV:  15    -0.830115084517E+02   -0.10160E-03   -0.20719E-05    56   0.975E-03    0.161E-03
DAV:  16    -0.830115665870E+02   -0.58135E-04   -0.14193E-05    48   0.806E-03
  31 F= -.83011567E+02 E0= -.82987697E+02  d E =-.743651E+00
       N       E                     dE             d eps       ncg     rms          rms(c)
DAV:   1    -0.815299727007E+02    0.14815E+01   -0.16083E+02   120   0.120E+02    0.457E+00
DAV:   2    -0.836088074501E+02   -0.20788E+01   -0.22309E+01   104   0.247E+01    0.435E+00
DAV:   3    -0.835702226187E+02    0.38585E-01   -0.45003E+00   152   0.962E+00    0.301E+00
DAV:   4    -0.834416313687E+02    0.12859E+00   -0.75323E-01   136   0.373E+00    0.147E+00
DAV:   5    -0.834339606291E+02    0.76707E-02   -0.50809E-01   152   0.234E+00    0.135E+00
DAV:   6    -0.834196015077E+02    0.14359E-01   -0.16015E-01   136   0.174E+00    0.425E-01
DAV:   7    -0.834210406288E+02   -0.14391E-02   -0.26676E-02   136   0.599E-01    0.239E-01
DAV:   8    -0.834205602924E+02    0.48034E-03   -0.59553E-03   136   0.295E-01    0.123E-01
DAV:   9    -0.834209998381E+02   -0.43955E-03   -0.64896E-04   120   0.135E-01    0.588E-02
DAV:  10    -0.834213984451E+02   -0.39861E-03   -0.26190E-04    96   0.751E-02    0.164E-02
DAV:  11    -0.834216806227E+02   -0.28218E-03   -0.48978E-05    72   0.441E-02    0.814E-03
DAV:  12    -0.834219433556E+02   -0.26273E-03   -0.40092E-05    72   0.216E-02    0.608E-03
DAV:  13    -0.834222429576E+02   -0.29960E-03   -0.42747E-05    80   0.157E-02    0.537E-03
DAV:  14    -0.834224439201E+02   -0.20096E-03   -0.25508E-05    72   0.118E-02    0.298E-03
DAV:  15    -0.834225506262E+02   -0.10671E-03   -0.18373E-05    72   0.102E-02    0.195E-03
DAV:  16    -0.834226088021E+02   -0.58176E-04   -0.97459E-06    72   0.689E-03
  32 F= -.83422609E+02 E0= -.83405303E+02  d E =-.115469E+01
       N       E                     dE             d eps       ncg     rms          rms(c)
DAV:   1    -0.834560576222E+02   -0.33507E-01   -0.72981E+01   112   0.764E+01    0.241E+00
DAV:   2    -0.841442751789E+02   -0.68822E+00   -0.83554E+00    96   0.151E+01    0.181E+00
DAV:   3    -0.841050716713E+02    0.39204E-01   -0.47262E-01   128   0.314E+00    0.988E-01
DAV:   4    -0.841115876717E+02   -0.65160E-02   -0.14837E-01   144   0.176E+00    0.920E-01
DAV:   5    -0.841046674465E+02    0.69202E-02   -0.11522E-01   136   0.154E+00    0.484E-01
DAV:   6    -0.841082891064E+02   -0.36217E-02   -0.52136E-02   136   0.993E-01    0.534E-01
DAV:   7    -0.841041989780E+02    0.40901E-02   -0.20361E-02   144   0.617E-01    0.112E-01
DAV:   8    -0.841048850255E+02   -0.68605E-03   -0.13811E-03   128   0.146E-01    0.495E-02
DAV:   9    -0.841050450008E+02   -0.15998E-03   -0.25332E-04    80   0.637E-02    0.224E-02
DAV:  10    -0.841051588492E+02   -0.11385E-03   -0.57237E-05    72   0.335E-02    0.100E-02
DAV:  11    -0.841052841542E+02   -0.12530E-03   -0.23761E-05    72   0.198E-02    0.616E-03
DAV:  12    -0.841054172799E+02   -0.13313E-03   -0.17896E-05    72   0.138E-02    0.329E-03
DAV:  13    -0.841055457685E+02   -0.12849E-03   -0.16854E-05    72   0.104E-02    0.240E-03
DAV:  14    -0.841056416091E+02   -0.95841E-04   -0.14996E-05    72   0.846E-03
  33 F= -.84105642E+02 E0= -.84084664E+02  d E =-.683033E+00
       N       E                     dE             d eps       ncg     rms          rms(c)
DAV:   1    -0.838195160779E+02    0.28603E+00   -0.52881E+01   112   0.656E+01    0.215E+00
DAV:   2    -0.843681729671E+02   -0.54866E+00   -0.66561E+00   112   0.126E+01    0.187E+00
DAV:   3    -0.842986152788E+02    0.69558E-01   -0.53966E-01   136   0.331E+00    0.140E+00
DAV:   4    -0.842857196723E+02    0.12896E-01   -0.23331E-01   136   0.228E+00    0.870E-01
DAV:   5    -0.842812338447E+02    0.44858E-02   -0.66642E-02   144   0.129E+00    0.460E-01
DAV:   6    -0.842830667461E+02   -0.18329E-02   -0.42746E-02   136   0.921E-01    0.384E-01
DAV:   7    -0.842815378939E+02    0.15289E-02   -0.14165E-02   128   0.561E-01    0.938E-02
DAV:   8    -0.842820221624E+02   -0.48427E-03   -0.17534E-03   128   0.141E-01    0.740E-02
DAV:   9    -0.842820313259E+02   -0.91635E-05   -0.38256E-04    96   0.583E-02
  34 F= -.84282031E+02 E0= -.84257050E+02  d E =-.859423E+00
       N       E                     dE             d eps       ncg     rms          rms(c)
DAV:   1    -0.846252974055E+02   -0.34328E+00   -0.44850E+01   112   0.567E+01    0.189E+00
DAV:   2    -0.849788140164E+02   -0.35352E+00   -0.45248E+00    96   0.106E+01    0.174E+00
DAV:   3    -0.849423905946E+02    0.36423E-01   -0.42575E-01   136   0.259E+00    0.123E+00
DAV:   4    -0.849376163628E+02    0.47742E-02   -0.18786E-01   136   0.213E+00    0.957E-01
DAV:   5    -0.849343523302E+02    0.32640E-02   -0.82484E-02   144   0.141E+00    0.661E-01
DAV:   6    -0.849305212446E+02    0.38311E-02   -0.51557E-02   136   0.106E+00    0.276E-01
DAV:   7    -0.849301250956E+02    0.39615E-03   -0.64117E-03   136   0.382E-01    0.819E-02
DAV:   8    -0.849305399829E+02   -0.41489E-03   -0.64506E-04   120   0.114E-01    0.337E-02
DAV:   9    -0.849307285248E+02   -0.18854E-03   -0.92903E-05    72   0.440E-02    0.160E-02
DAV:  10    -0.849308944273E+02   -0.16590E-03   -0.54314E-05    72   0.284E-02    0.803E-03
DAV:  11    -0.849310332249E+02   -0.13880E-03   -0.17871E-05    72   0.180E-02    0.609E-03
DAV:  12    -0.849312364461E+02   -0.20322E-03   -0.29574E-05    72   0.149E-02    0.383E-03
DAV:  13    -0.849313521187E+02   -0.11567E-03   -0.17111E-05    56   0.104E-02    0.279E-03
DAV:  14    -0.849314259443E+02   -0.73826E-04   -0.10681E-05    72   0.745E-03
  35 F= -.84931426E+02 E0= -.84901584E+02  d E =-.649395E+00
       N       E                     dE             d eps       ncg     rms          rms(c)
DAV:   1    -0.839241595835E+02    0.10072E+01   -0.20686E+02   104   0.118E+02    0.429E+00
DAV:   2    -0.858134094411E+02   -0.18892E+01   -0.26691E+01   112   0.240E+01    0.417E+00
DAV:   3    -0.856114367059E+02    0.20197E+00   -0.36171E+00   152   0.745E+00    0.398E+00
DAV:   4    -0.854572490990E+02    0.15419E+00   -0.14986E+00   144   0.494E+00    0.179E+00
DAV:   5    -0.854340815376E+02    0.23168E-01   -0.28001E-01   128   0.192E+00    0.763E-01
DAV:   6    -0.854440304798E+02   -0.99489E-02   -0.16683E-01   136   0.156E+00    0.792E-01
DAV:   7    -0.854354621902E+02    0.85683E-02   -0.70283E-02   136   0.120E+00    0.304E-01
DAV:   8    -0.854356973475E+02   -0.23516E-03   -0.13017E-02   136   0.408E-01    0.163E-01
DAV:   9    -0.854358620094E+02   -0.16466E-03   -0.33891E-03   120   0.143E-01    0.584E-02
DAV:  10    -0.854363136006E+02   -0.45159E-03   -0.35564E-04    88   0.770E-02    0.205E-02
DAV:  11    -0.854366062968E+02   -0.29270E-03   -0.77499E-05    72   0.422E-02    0.134E-02
DAV:  12    -0.854368806302E+02   -0.27433E-03   -0.41395E-05    72   0.220E-02    0.862E-03
DAV:  13    -0.854372320306E+02   -0.35140E-03   -0.56580E-05    80   0.197E-02    0.791E-03
DAV:  14    -0.854374582971E+02   -0.22627E-03   -0.25941E-05    72   0.136E-02    0.471E-03
DAV:  15    -0.854376268249E+02   -0.16853E-03   -0.26060E-05    72   0.108E-02    0.231E-03
DAV:  16    -0.854377079447E+02   -0.81120E-04   -0.12916E-05    72   0.796E-03
  36 F= -.85437708E+02 E0= -.85401867E+02  d E =-.115568E+01
       N       E                     dE             d eps       ncg     rms          rms(c)
DAV:   1    -0.855736005567E+02   -0.13597E+00   -0.44490E+01    96   0.539E+01    0.198E+00
DAV:   2    -0.859080687244E+02   -0.33447E+00   -0.47778E+00   112   0.109E+01    0.155E+00
DAV:   3    -0.859193055331E+02   -0.11237E-01   -0.71495E-01   144   0.286E+00    0.172E+00
DAV:   4    -0.858919497199E+02    0.27356E-01   -0.36984E-01   144   0.216E+00    0.994E-01
DAV:   5    -0.858853869217E+02    0.65628E-02   -0.66002E-02   128   0.112E+00    0.399E-01
DAV:   6    -0.858858727176E+02   -0.48580E-03   -0.30705E-02   136   0.731E-01    0.288E-01
DAV:   7    -0.858852042741E+02    0.66844E-03   -0.91060E-03   136   0.448E-01    0.132E-01
DAV:   8    -0.858853200516E+02   -0.11578E-03   -0.15558E-03   128   0.170E-01    0.401E-02
DAV:   9    -0.858854354681E+02   -0.11542E-03   -0.17954E-04    72   0.578E-02    0.201E-02
DAV:  10    -0.858855354666E+02   -0.99999E-04   -0.77671E-05    72   0.354E-02
  37 F= -.85885535E+02 E0= -.85843050E+02  d E =-.447828E+00
       N       E                     dE             d eps       ncg     rms          rms(c)
DAV:   1    -0.858435182632E+02    0.41917E-01   -0.21764E+01    96   0.376E+01    0.141E+00
DAV:   2    -0.859925225955E+02   -0.14900E+00   -0.21489E+00   112   0.752E+00    0.109E+00
DAV:   3    -0.860008876686E+02   -0.83651E-02   -0.27857E-01   152   0.243E+00    0.126E+00
DAV:   4    -0.859851222450E+02    0.15765E-01   -0.17761E-01   144   0.142E+00    0.627E-01
DAV:   5    -0.859832084346E+02    0.19138E-02   -0.71871E-02   136   0.813E-01    0.325E-01
DAV:   6    -0.859825605422E+02    0.64789E-03   -0.18975E-02   136   0.442E-01    0.152E-01
DAV:   7    -0.859826245968E+02   -0.64055E-04   -0.33531E-03   136   0.266E-01    0.864E-02
DAV:   8    -0.859826753758E+02   -0.50779E-04   -0.71904E-04   112   0.129E-01
  38 F= -.85982675E+02 E0= -.85929469E+02  d E =-.544967E+00
       N       E                     dE             d eps       ncg     rms          rms(c)
DAV:   1    -0.862867876185E+02   -0.30416E+00   -0.83963E+00   112   0.268E+01    0.103E+00
DAV:   2    -0.864152176337E+02   -0.12843E+00   -0.15695E+00   128   0.562E+00    0.214E+00
DAV:   3    -0.863590354030E+02    0.56182E-01   -0.49368E-01   144   0.240E+00    0.656E-01
DAV:   4    -0.863592998327E+02   -0.26443E-03   -0.42666E-02   144   0.968E-01    0.354E-01
DAV:   5    -0.863596772945E+02   -0.37746E-03   -0.19712E-02   136   0.669E-01    0.293E-01
DAV:   6    -0.863593469023E+02    0.33039E-03   -0.11051E-02   144   0.501E-01    0.131E-01
DAV:   7    -0.863592801140E+02    0.66788E-04   -0.24842E-03   128   0.193E-01    0.446E-02
DAV:   8    -0.863594143560E+02   -0.13424E-03   -0.34498E-04    80   0.595E-02    0.232E-02
DAV:   9    -0.863594805114E+02   -0.66155E-04   -0.86031E-05    72   0.314E-02
  39 F= -.86359481E+02 E0= -.86302749E+02  d E =-.376805E+00
       N       E                     dE             d eps       ncg     rms          rms(c)
DAV:   1    -0.862959390616E+02    0.63475E-01   -0.75296E+01   112   0.788E+01    0.283E+00
DAV:   2    -0.871932900150E+02   -0.89735E+00   -0.10928E+01   112   0.165E+01    0.417E+00
DAV:   3    -0.870160315698E+02    0.17726E+00   -0.24762E+00   144   0.639E+00    0.216E+00
DAV:   4    -0.869712943288E+02    0.44737E-01   -0.41937E-01   144   0.294E+00    0.105E+00
DAV:   5    -0.869699202802E+02    0.13740E-02   -0.16816E-01   136   0.184E+00    0.856E-01
DAV:   6    -0.869650837321E+02    0.48365E-02   -0.92792E-02   136   0.147E+00    0.390E-01
DAV:   7    -0.869640989704E+02    0.98476E-03   -0.19127E-02   128   0.560E-01    0.137E-01
DAV:   8    -0.869647529979E+02   -0.65403E-03   -0.33926E-03   128   0.177E-01    0.798E-02
DAV:   9    -0.869649466991E+02   -0.19370E-03   -0.14135E-03    96   0.906E-02    0.373E-02
DAV:  10    -0.869652210033E+02   -0.27430E-03   -0.17442E-04    80   0.515E-02    0.173E-02
DAV:  11    -0.869654881654E+02   -0.26716E-03   -0.55139E-05    80   0.277E-02    0.103E-02
DAV:  12    -0.869657739472E+02   -0.28578E-03   -0.33538E-05    80   0.183E-02    0.514E-03
DAV:  13    -0.869660497750E+02   -0.27583E-03   -0.36571E-05    72   0.133E-02    0.382E-03
DAV:  14    -0.869662553246E+02   -0.20555E-03   -0.30113E-05    72   0.109E-02    0.259E-03
DAV:  15    -0.869663440004E+02   -0.88676E-04   -0.10203E-05    72   0.731E-03
  40 F= -.86966344E+02 E0= -.86902667E+02  d E =-.983669E+00
       N       E                     dE             d eps       ncg     rms          rms(c)
DAV:   1    -0.872274749383E+02   -0.26122E+00   -0.11128E+01   112   0.314E+01    0.107E+00
DAV:   2    -0.873600245974E+02   -0.13255E+00   -0.15533E+00   128   0.632E+00    0.165E+00
DAV:   3    -0.873289618250E+02    0.31063E-01   -0.34594E-01   144   0.252E+00    0.741E-01
DAV:   4    -0.873267041294E+02    0.22577E-02   -0.71099E-02   144   0.112E+00    0.495E-01
DAV:   5    -0.873251661280E+02    0.15380E-02   -0.23674E-02   136   0.740E-01    0.251E-01
DAV:   6    -0.873252878388E+02   -0.12171E-03   -0.94065E-03   136   0.416E-01    0.111E-01
DAV:   7    -0.873252635177E+02    0.24321E-04   -0.28284E-03   128   0.147E-01    0.479E-02
DAV:   8    -0.873253470169E+02   -0.83499E-04   -0.25818E-04    72   0.586E-02
  41 F= -.87325347E+02 E0= -.87263253E+02  d E =-.359003E+00
       N       E                     dE             d eps       ncg     rms          rms(c)
DAV:   1    -0.868571277216E+02    0.46814E+00   -0.10110E+02   104   0.915E+01    0.328E+00
DAV:   2    -0.880159519754E+02   -0.11588E+01   -0.13582E+01   112   0.193E+01    0.377E+00
DAV:   3    -0.878415077657E+02    0.17444E+00   -0.20995E+00   144   0.671E+00    0.189E+00
DAV:   4    -0.878138335380E+02    0.27674E-01   -0.52196E-01   144   0.324E+00    0.141E+00
DAV:   5    -0.877993080521E+02    0.14525E-01   -0.19441E-01   136   0.212E+00    0.684E-01
DAV:   6    -0.877981403772E+02    0.11677E-02   -0.63191E-02   136   0.115E+00    0.317E-01
DAV:   7    -0.877980885050E+02    0.51872E-04   -0.16016E-02   128   0.436E-01    0.137E-01
DAV:   8    -0.877985120104E+02   -0.42351E-03   -0.24674E-03   128   0.161E-01    0.640E-02
DAV:   9    -0.877989225439E+02   -0.41053E-03   -0.33124E-04    96   0.814E-02    0.381E-02
DAV:  10    -0.877991836870E+02   -0.26114E-03   -0.15814E-04    80   0.459E-02    0.196E-02
DAV:  11    -0.877994285950E+02   -0.24491E-03   -0.68504E-05    80   0.332E-02    0.103E-02
DAV:  12    -0.877997321182E+02   -0.30352E-03   -0.39535E-05    80   0.219E-02    0.676E-03
DAV:  13    -0.878000100050E+02   -0.27789E-03   -0.29966E-05    80   0.140E-02    0.447E-03
DAV:  14    -0.878002798716E+02   -0.26987E-03   -0.38723E-05    88   0.122E-02    0.248E-03
DAV:  15    -0.878004145228E+02   -0.13465E-03   -0.17104E-05    72   0.904E-03    0.159E-03
DAV:  16    -0.878004728925E+02   -0.58370E-04   -0.87678E-06    72   0.691E-03
  42 F= -.87800473E+02 E0= -.87747934E+02  d E =-.834129E+00
       N       E                     dE             d eps       ncg     rms          rms(c)
DAV:   1    -0.880054656186E+02   -0.20505E+00   -0.17735E+01   112   0.372E+01    0.130E+00
DAV:   2    -0.881720799368E+02   -0.16661E+00   -0.20028E+00   120   0.765E+00    0.146E+00
DAV:   3    -0.881561864276E+02    0.15894E-01   -0.36215E-01   144   0.310E+00    0.833E-01
DAV:   4    -0.881474810727E+02    0.87054E-02   -0.67099E-02   136   0.131E+00    0.366E-01
DAV:   5    -0.881494143539E+02   -0.19333E-02   -0.20966E-02   152   0.742E-01    0.318E-01
DAV:   6    -0.881484264695E+02    0.98788E-03   -0.10316E-02   144   0.524E-01    0.951E-02
DAV:   7    -0.881486283587E+02   -0.20189E-03   -0.13759E-03   128   0.152E-01    0.459E-02
DAV:   8    -0.881486362885E+02   -0.79298E-05   -0.27106E-04    72   0.595E-02
  43 F= -.88148636E+02 E0= -.88105729E+02  d E =-.348163E+00
       N       E                     dE             d eps       ncg     rms          rms(c)
DAV:   1    -0.873477064234E+02    0.80092E+00   -0.16477E+02   104   0.108E+02    0.387E+00
DAV:   2    -0.888022011461E+02   -0.14545E+01   -0.16959E+01    96   0.225E+01    0.310E+00
DAV:   3    -0.887625961098E+02    0.39605E-01   -0.18445E+00   152   0.745E+00    0.211E+00
DAV:   4    -0.887015248202E+02    0.61071E-01   -0.53849E-01   144   0.381E+00    0.116E+00
DAV:   5    -0.887028221211E+02   -0.12973E-02   -0.17347E-01   136   0.209E+00    0.705E-01
DAV:   6    -0.886988208764E+02    0.40012E-02   -0.60741E-02   144   0.127E+00    0.327E-01
DAV:   7    -0.886989563448E+02   -0.13547E-03   -0.12069E-02   144   0.557E-01    0.110E-01
DAV:   8    -0.886994063725E+02   -0.45003E-03   -0.13416E-03   128   0.158E-01    0.516E-02
DAV:   9    -0.886998146518E+02   -0.40828E-03   -0.22003E-04    88   0.698E-02    0.301E-02
DAV:  10    -0.887002546834E+02   -0.44003E-03   -0.99374E-05    80   0.455E-02    0.125E-02
DAV:  11    -0.887007351287E+02   -0.48045E-03   -0.60904E-05    88   0.270E-02    0.848E-03
DAV:  12    -0.887011559843E+02   -0.42086E-03   -0.42710E-05    88   0.178E-02    0.639E-03
DAV:  13    -0.887015318498E+02   -0.37587E-03   -0.45485E-05    88   0.153E-02    0.335E-03
DAV:  14    -0.887017418830E+02   -0.21003E-03   -0.26198E-05    88   0.107E-02    0.197E-03
DAV:  15    -0.887018669743E+02   -0.12509E-03   -0.12068E-05    72   0.851E-03    0.146E-03
DAV:  16    -0.887019307357E+02   -0.63761E-04   -0.72198E-06    80   0.623E-03
  44 F= -.88701931E+02 E0= -.88689076E+02  d E =-.901458E+00
       N       E                     dE             d eps       ncg     rms          rms(c)
DAV:   1    -0.891265759517E+02   -0.42471E+00   -0.17949E+01    96   0.301E+01    0.116E+00
DAV:   2    -0.891951811227E+02   -0.68605E-01   -0.10957E+00   120   0.542E+00    0.963E-01
DAV:   3    -0.891867214669E+02    0.84597E-02   -0.12549E-01   128   0.211E+00    0.599E-01
DAV:   4    -0.891817043198E+02    0.50171E-02   -0.37154E-02   144   0.977E-01    0.227E-01
DAV:   5    -0.891820886684E+02   -0.38435E-03   -0.60379E-03   136   0.391E-01    0.109E-01
DAV:   6    -0.891824377845E+02   -0.34912E-03   -0.28027E-03   136   0.277E-01    0.135E-01
DAV:   7    -0.891822155610E+02    0.22222E-03   -0.12623E-03   120   0.186E-01    0.339E-02
DAV:   8    -0.891823212704E+02   -0.10571E-03   -0.10814E-04    80   0.489E-02    0.134E-02
DAV:   9    -0.891823909954E+02   -0.69725E-04   -0.29013E-05    72   0.232E-02
  45 F= -.89182391E+02 E0= -.89175859E+02  d E =-.480460E+00
       N       E                     dE             d eps       ncg     rms          rms(c)
DAV:   1    -0.893306076249E+02   -0.14829E+00   -0.10060E+02    96   0.704E+01    0.285E+00
DAV:   2    -0.897511622688E+02   -0.42055E+00   -0.64793E+00   128   0.132E+01    0.266E+00
DAV:   3    -0.896815422308E+02    0.69620E-01   -0.97184E-01   128   0.547E+00    0.168E+00
DAV:   4    -0.896396661631E+02    0.41876E-01   -0.25911E-01   128   0.255E+00    0.850E-01
DAV:   5    -0.896483509294E+02   -0.86848E-02   -0.20588E-01   136   0.213E+00    0.104E+00
DAV:   6    -0.896322273248E+02    0.16124E-01   -0.78107E-02   128   0.150E+00    0.184E-01
DAV:   7    -0.896336688125E+02   -0.14415E-02   -0.48040E-03   120   0.263E-01    0.968E-02
DAV:   8    -0.896340446678E+02   -0.37586E-03   -0.49319E-04   104   0.856E-02    0.534E-02
DAV:   9    -0.896344602819E+02   -0.41561E-03   -0.15151E-04    80   0.595E-02    0.200E-02
DAV:  10    -0.896347350137E+02   -0.27473E-03   -0.53818E-05    72   0.302E-02    0.118E-02
DAV:  11    -0.896352577652E+02   -0.52275E-03   -0.73520E-05    80   0.240E-02    0.819E-03
DAV:  12    -0.896356697299E+02   -0.41196E-03   -0.47638E-05    80   0.180E-02    0.494E-03
DAV:  13    -0.896359419078E+02   -0.27218E-03   -0.29565E-05    80   0.122E-02    0.279E-03
DAV:  14    -0.896361118684E+02   -0.16996E-03   -0.19398E-05    80   0.938E-03    0.162E-03
DAV:  15    -0.896362075763E+02   -0.95708E-04   -0.10064E-05    72   0.681E-03
  46 F= -.89636208E+02 E0= -.89635164E+02  d E =-.934277E+00
       N       E                     dE             d eps       ncg     rms          rms(c)
DAV:   1    -0.901218916665E+02   -0.48578E+00   -0.40053E+01    96   0.466E+01    0.186E+00
DAV:   2    -0.903467106799E+02   -0.22482E+00   -0.34104E+00   120   0.923E+00    0.232E+00
DAV:   3    -0.902966449337E+02    0.50066E-01   -0.72488E-01   136   0.426E+00    0.124E+00
DAV:   4    -0.902828193214E+02    0.13826E-01   -0.13095E-01   136   0.189E+00    0.743E-01
DAV:   5    -0.902780020325E+02    0.48173E-02   -0.74321E-02   136   0.131E+00    0.487E-01
DAV:   6    -0.902762315275E+02    0.17705E-02   -0.16680E-02   128   0.663E-01    0.102E-01
DAV:   7    -0.902766050420E+02   -0.37351E-03   -0.15234E-03   120   0.156E-01    0.495E-02
DAV:   8    -0.902767442477E+02   -0.13921E-03   -0.14504E-04    88   0.517E-02    0.291E-02
DAV:   9    -0.902769119353E+02   -0.16769E-03   -0.61378E-05    80   0.348E-02    0.109E-02
DAV:  10    -0.902770519282E+02   -0.13999E-03   -0.21326E-05    80   0.199E-02    0.558E-03
DAV:  11    -0.902772559089E+02   -0.20398E-03   -0.22483E-05    80   0.132E-02    0.338E-03
DAV:  12    -0.902774123805E+02   -0.15647E-03   -0.16519E-05    80   0.970E-03    0.233E-03
DAV:  13    -0.902775199487E+02   -0.10757E-03   -0.10988E-05    72   0.738E-03    0.132E-03
DAV:  14    -0.902775800449E+02   -0.60096E-04   -0.65886E-06    72   0.560E-03
  47 F= -.90277580E+02 E0= -.90277064E+02  d E =-.641372E+00
       N       E                     dE             d eps       ncg     rms          rms(c)
DAV:   1    -0.903572768756E+02   -0.79757E-01   -0.41826E+01   104   0.473E+01    0.187E+00
DAV:   2    -0.905645123775E+02   -0.20724E+00   -0.33881E+00   120   0.919E+00    0.215E+00
DAV:   3    -0.905329775105E+02    0.31535E-01   -0.78416E-01   144   0.411E+00    0.142E+00
DAV:   4    -0.905105015794E+02    0.22476E-01   -0.15106E-01   136   0.194E+00    0.732E-01
DAV:   5    -0.905070625525E+02    0.34390E-02   -0.75477E-02   136   0.136E+00    0.538E-01
DAV:   6    -0.905043893009E+02    0.26733E-02   -0.19846E-02   128   0.728E-01    0.103E-01
DAV:   7    -0.905048111992E+02   -0.42190E-03   -0.16885E-03   120   0.164E-01    0.515E-02
DAV:   8    -0.905049475560E+02   -0.13636E-03   -0.15596E-04    88   0.551E-02    0.313E-02
DAV:   9    -0.905051045381E+02   -0.15698E-03   -0.67312E-05    80   0.368E-02    0.104E-02
DAV:  10    -0.905052254580E+02   -0.12092E-03   -0.21420E-05    72   0.206E-02    0.543E-03
DAV:  11    -0.905053929501E+02   -0.16749E-03   -0.18368E-05    80   0.128E-02    0.322E-03
DAV:  12    -0.905055429929E+02   -0.15004E-03   -0.16538E-05    80   0.965E-03    0.231E-03
DAV:  13    -0.905056349317E+02   -0.91939E-04   -0.95129E-06    80   0.708E-03
  48 F= -.90505635E+02 E0= -.90505385E+02  d E =-.869427E+00
       N       E                     dE             d eps       ncg     rms          rms(c)
DAV:   1    -0.911280885660E+02   -0.62255E+00   -0.26041E+01    96   0.376E+01    0.136E+00
DAV:   2    -0.912309711511E+02   -0.10288E+00   -0.18220E+00   112   0.717E+00    0.100E+00
DAV:   3    -0.912338774798E+02   -0.29063E-02   -0.25695E-01   136   0.230E+00    0.109E+00
DAV:   4    -0.912167241373E+02    0.17153E-01   -0.11190E-01   144   0.158E+00    0.481E-01
DAV:   5    -0.912172539997E+02   -0.52986E-03   -0.34055E-02   136   0.900E-01    0.409E-01
DAV:   6    -0.912150164951E+02    0.22375E-02   -0.13925E-02   128   0.637E-01    0.103E-01
DAV:   7    -0.912151851738E+02   -0.16868E-03   -0.14085E-03   112   0.168E-01    0.384E-02
DAV:   8    -0.912152786834E+02   -0.93510E-04   -0.17766E-04    88   0.646E-02
  49 F= -.91215279E+02 E0= -.91215198E+02  d E =-.709644E+00
       N       E                     dE             d eps       ncg     rms          rms(c)
DAV:   1    -0.913392666868E+02   -0.12408E+00   -0.32510E+01    96   0.420E+01    0.147E+00
DAV:   2    -0.914796315012E+02   -0.14036E+00   -0.22980E+00   112   0.809E+00    0.116E+00
DAV:   3    -0.914825012972E+02   -0.28698E-02   -0.33203E-01   136   0.266E+00    0.122E+00
DAV:   4    -0.914599470402E+02    0.22554E-01   -0.12460E-01   144   0.183E+00    0.480E-01
DAV:   5    -0.914597294830E+02    0.21756E-03   -0.29192E-02   128   0.819E-01    0.322E-01
DAV:   6    -0.914587578697E+02    0.97161E-03   -0.11091E-02   128   0.586E-01    0.136E-01
DAV:   7    -0.914588336038E+02   -0.75734E-04   -0.18759E-03   120   0.217E-01    0.445E-02
DAV:   8    -0.914590315355E+02   -0.19793E-03   -0.23243E-04    88   0.707E-02    0.202E-02
DAV:   9    -0.914592603408E+02   -0.22881E-03   -0.72615E-05    80   0.325E-02    0.803E-03
DAV:  10    -0.914594356349E+02   -0.17529E-03   -0.23020E-05    80   0.203E-02    0.509E-03
DAV:  11    -0.914596833458E+02   -0.24771E-03   -0.35838E-05    80   0.158E-02    0.293E-03
DAV:  12    -0.914598318459E+02   -0.14850E-03   -0.23001E-05    80   0.111E-02    0.210E-03
DAV:  13    -0.914599160979E+02   -0.84252E-04   -0.11030E-05    80   0.841E-03
  50 F= -.91459916E+02 E0= -.91459866E+02  d E =-.954281E+00
       N       E                     dE             d eps       ncg     rms          rms(c)
DAV:   1    -0.916486391847E+02   -0.18881E+00   -0.15843E+01   112   0.375E+01    0.120E+00
DAV:   2    -0.917817102237E+02   -0.13307E+00   -0.16833E+00    96   0.705E+00    0.100E+00
DAV:   3    -0.917773991385E+02    0.43111E-02   -0.13186E-01   152   0.226E+00    0.630E-01
DAV:   4    -0.917727774479E+02    0.46217E-02   -0.28304E-02   144   0.101E+00    0.337E-01
DAV:   5    -0.917754137703E+02   -0.26363E-02   -0.25528E-02   136   0.778E-01    0.439E-01
DAV:   6    -0.917725777937E+02    0.28360E-02   -0.15934E-02   136   0.568E-01    0.870E-02
DAV:   7    -0.917728907123E+02   -0.31292E-03   -0.97044E-04   120   0.150E-01    0.330E-02
DAV:   8    -0.917730010338E+02   -0.11032E-03   -0.91344E-05    80   0.527E-02    0.215E-02
DAV:   9    -0.917731175962E+02   -0.11656E-03   -0.39511E-05    80   0.293E-02    0.903E-03
DAV:  10    -0.917731884667E+02   -0.70870E-04   -0.13899E-05    80   0.163E-02
  51 F= -.91773188E+02 E0= -.91773100E+02  d E =-.313272E+00
       N       E                     dE             d eps       ncg     rms          rms(c)
DAV:   1    -0.917337439815E+02    0.39374E-01   -0.22428E+01   112   0.444E+01    0.142E+00
DAV:   2    -0.919180555951E+02   -0.18431E+00   -0.23286E+00    96   0.827E+00    0.117E+00
DAV:   3    -0.919123794884E+02    0.56761E-02   -0.18101E-01   152   0.263E+00    0.771E-01
DAV:   4    -0.919054235073E+02    0.69560E-02   -0.42842E-02   136   0.123E+00    0.424E-01
DAV:   5    -0.919095115873E+02   -0.40881E-02   -0.47230E-02   136   0.990E-01    0.579E-01
DAV:   6    -0.919046402323E+02    0.48714E-02   -0.28462E-02   136   0.727E-01    0.104E-01
DAV:   7    -0.919051193344E+02   -0.47910E-03   -0.14830E-03   136   0.178E-01    0.426E-02
DAV:   8    -0.919053096880E+02   -0.19035E-03   -0.12387E-04    80   0.610E-02    0.267E-02
DAV:   9    -0.919055103852E+02   -0.20070E-03   -0.62778E-05    80   0.354E-02    0.100E-02
DAV:  10    -0.919056201033E+02   -0.10972E-03   -0.20107E-05    72   0.203E-02    0.462E-03
DAV:  11    -0.919057896680E+02   -0.16956E-03   -0.26317E-05    80   0.148E-02    0.324E-03
DAV:  12    -0.919059034496E+02   -0.11378E-03   -0.20393E-05    80   0.101E-02    0.233E-03
DAV:  13    -0.919059779663E+02   -0.74517E-04   -0.13216E-05    80   0.770E-03
  52 F= -.91905978E+02 E0= -.91905821E+02  d E =-.446062E+00
       N       E                     dE             d eps       ncg     rms          rms(c)
DAV:   1    -0.919709632630E+02   -0.65060E-01   -0.17526E+01   112   0.361E+01    0.124E+00
DAV:   2    -0.920806989808E+02   -0.10974E+00   -0.15023E+00    96   0.651E+00    0.948E-01
DAV:   3    -0.920836241833E+02   -0.29252E-02   -0.21540E-01   144   0.229E+00    0.924E-01
DAV:   4    -0.920708385886E+02    0.12786E-01   -0.87215E-02   136   0.180E+00    0.373E-01
DAV:   5    -0.920722368815E+02   -0.13983E-02   -0.20929E-02   136   0.772E-01    0.332E-01
DAV:   6    -0.920706999396E+02    0.15369E-02   -0.75989E-03   136   0.509E-01    0.721E-02
DAV:   7    -0.920708480936E+02   -0.14815E-03   -0.73524E-04   120   0.132E-01    0.333E-02
DAV:   8    -0.920709162945E+02   -0.68201E-04   -0.91987E-05    72   0.533E-02
  53 F= -.92070916E+02 E0= -.92070828E+02  d E =-.164938E+00
       N       E                     dE             d eps       ncg     rms          rms(c)
DAV:   1    -0.920716002485E+02   -0.75215E-03   -0.32748E-01   112   0.494E+00    0.170E-01
DAV:   2    -0.920737253095E+02   -0.21251E-02   -0.29219E-02    96   0.902E-01    0.133E-01
DAV:   3    -0.920737454951E+02   -0.20186E-04   -0.40201E-03   152   0.337E-01    0.127E-01
DAV:   4    -0.920735681658E+02    0.17733E-03   -0.16709E-03   128   0.200E-01    0.528E-02
DAV:   5    -0.920736605284E+02   -0.92363E-04   -0.43515E-04    96   0.119E-01
  54 F= -.92073661E+02 E0= -.92073578E+02  d E =-.167683E+00
       N       E                     dE             d eps       ncg     rms          rms(c)
DAV:   1    -0.921085031334E+02   -0.34935E-01   -0.12289E+01   104   0.277E+01    0.102E+00
DAV:   2    -0.921868219804E+02   -0.78319E-01   -0.10490E+00   120   0.517E+00    0.732E-01
DAV:   3    -0.921850287644E+02    0.17932E-02   -0.87705E-02   136   0.166E+00    0.589E-01
DAV:   4    -0.921816985409E+02    0.33302E-02   -0.38799E-02   128   0.985E-01    0.333E-01
DAV:   5    -0.921830083149E+02   -0.13098E-02   -0.24820E-02   152   0.736E-01    0.361E-01
DAV:   6    -0.921812505298E+02    0.17578E-02   -0.10849E-02   128   0.522E-01    0.766E-02
DAV:   7    -0.921814039420E+02   -0.15341E-03   -0.69125E-04   112   0.127E-01    0.289E-02
DAV:   8    -0.921814979586E+02   -0.94017E-04   -0.85702E-05    80   0.488E-02
  55 F= -.92181498E+02 E0= -.92181280E+02  d E =-.107837E+00
       N       E                     dE             d eps       ncg     rms          rms(c)
DAV:   1    -0.921817176054E+02   -0.31366E-03   -0.29992E-01   104   0.434E+00    0.157E-01
[...]
DAV:   1    -0.924167450434E+02   -0.82821E-04   -0.79240E-01   104   0.640E+00    0.238E-01
DAV:   2    -0.924201013742E+02   -0.33563E-02   -0.51169E-02   112   0.120E+00    0.212E-01
DAV:   3    -0.924199491605E+02    0.15221E-03   -0.93487E-03   152   0.442E-01    0.171E-01
DAV:   4    -0.924196809335E+02    0.26823E-03   -0.35255E-03   136   0.256E-01    0.848E-02
DAV:   5    -0.924197637738E+02   -0.82840E-04   -0.11833E-03   120   0.177E-01    0.760E-02
DAV:   6    -0.924197069382E+02    0.56836E-04   -0.37064E-04    88   0.108E-01
  66 F= -.92419707E+02 E0= -.92417808E+02  d E =-.162311E-01
       N       E                     dE             d eps       ncg     rms          rms(c)
DAV:   1    -0.924283985131E+02   -0.86347E-02   -0.99599E-01    96   0.616E+00    0.270E-01
DAV:   2    -0.924305806506E+02   -0.21821E-02   -0.41847E-02   120   0.102E+00    0.250E-01
DAV:   3    -0.924302706692E+02    0.30998E-03   -0.88669E-03   136   0.487E-01    0.203E-01
DAV:   4    -0.924299207880E+02    0.34988E-03   -0.40073E-03   144   0.284E-01    0.890E-02
DAV:   5    -0.924300297069E+02   -0.10892E-03   -0.19549E-03   136   0.187E-01    0.841E-02
DAV:   6    -0.924299416382E+02    0.88069E-04   -0.68553E-04    88   0.125E-01
  67 F= -.92429942E+02 E0= -.92427549E+02  d E =-.102347E-01
       N       E                     dE             d eps       ncg     rms          rms(c)
DAV:   1    -0.924318653614E+02   -0.18357E-02   -0.10167E+00    96   0.622E+00    0.274E-01
DAV:   2    -0.924340843273E+02   -0.22190E-02   -0.42989E-02   120   0.103E+00    0.253E-01
DAV:   3    -0.924337926106E+02    0.29172E-03   -0.91998E-03   136   0.495E-01    0.208E-01
DAV:   4    -0.924334073348E+02    0.38528E-03   -0.41729E-03   144   0.290E-01    0.894E-02
DAV:   5    -0.924335206598E+02   -0.11333E-03   -0.19833E-03   136   0.188E-01    0.852E-02
DAV:   6    -0.924334315741E+02    0.89086E-04   -0.70997E-04    88   0.127E-01
  68 F= -.92433432E+02 E0= -.92430463E+02  d E =-.137246E-01
       N       E                     dE             d eps       ncg     rms          rms(c)
DAV:   1    -0.924398794687E+02   -0.63588E-02   -0.11444E+00    96   0.678E+00    0.272E-01
DAV:   2    -0.924428140956E+02   -0.29346E-02   -0.49563E-02   120   0.110E+00    0.224E-01
DAV:   3    -0.924428133852E+02    0.71038E-06   -0.10289E-02   136   0.463E-01    0.212E-01
DAV:   4    -0.924423950705E+02    0.41831E-03   -0.47157E-03   136   0.297E-01    0.992E-02
DAV:   5    -0.924424798531E+02   -0.84783E-04   -0.17437E-03   128   0.204E-01    0.837E-02
DAV:   6    -0.924424104831E+02    0.69370E-04   -0.50804E-04    88   0.117E-01
  69 F= -.92442410E+02 E0= -.92439370E+02  d E =-.897891E-02
       N       E                     dE             d eps       ncg     rms          rms(c)
DAV:   1    -0.924429455864E+02   -0.46573E-03   -0.86823E-01    96   0.590E+00    0.235E-01
DAV:   2    -0.924451567824E+02   -0.22112E-02   -0.37299E-02   120   0.959E-01    0.191E-01
DAV:   3    -0.924451869712E+02   -0.30189E-04   -0.76086E-03   136   0.398E-01    0.184E-01
DAV:   4    -0.924448733626E+02    0.31361E-03   -0.35462E-03   136   0.257E-01    0.853E-02
DAV:   5    -0.924449509486E+02   -0.77586E-04   -0.12987E-03   128   0.176E-01    0.738E-02
DAV:   6    -0.924448964817E+02    0.54467E-04   -0.36663E-04    80   0.103E-01
  70 F= -.92444896E+02 E0= -.92441778E+02  d E =-.114649E-01
       N       E                     dE             d eps       ncg     rms          rms(c)
DAV:   1    -0.924508446510E+02   -0.58937E-02   -0.12608E+00    96   0.758E+00    0.286E-01
DAV:   2    -0.924545190331E+02   -0.36744E-02   -0.64096E-02   112   0.131E+00    0.198E-01
DAV:   3    -0.924549046211E+02   -0.38559E-03   -0.93844E-03   144   0.461E-01    0.222E-01
DAV:   4    -0.924543281426E+02    0.57648E-03   -0.51070E-03   136   0.333E-01    0.983E-02
DAV:   5    -0.924544384607E+02   -0.11032E-03   -0.74234E-04   120   0.127E-01    0.215E-02
DAV:   6    -0.924544697169E+02   -0.31256E-04   -0.95785E-05    48   0.522E-02
  71 F= -.92454470E+02 E0= -.92450913E+02  d E =-.957324E-02
       N       E                     dE             d eps       ncg     rms          rms(c)
DAV:   1    -0.924535666299E+02    0.87183E-03   -0.16289E+00    96   0.862E+00    0.325E-01
DAV:   2    -0.924583671859E+02   -0.48006E-02   -0.82752E-02   112   0.150E+00    0.222E-01
DAV:   3    -0.924588510078E+02   -0.48382E-03   -0.11581E-02   144   0.515E-01    0.249E-01
DAV:   4    -0.924581534504E+02    0.69756E-03   -0.64902E-03   136   0.405E-01    0.114E-01
DAV:   5    -0.924582639458E+02   -0.11050E-03   -0.10016E-03   120   0.148E-01    0.263E-02
DAV:   6    -0.924583132126E+02   -0.49267E-04   -0.18253E-04    72   0.698E-02
  72 F= -.92458313E+02 E0= -.92454178E+02  d E =-.134167E-01
       N       E                     dE             d eps       ncg     rms          rms(c)
DAV:   1    -0.924615823345E+02   -0.33184E-02   -0.85104E-01    96   0.729E+00    0.225E-01
DAV:   2    -0.924660271675E+02   -0.44448E-02   -0.58333E-02    96   0.131E+00    0.135E-01
DAV:   3    -0.924662464054E+02   -0.21924E-03   -0.31931E-03   152   0.304E-01    0.111E-01
DAV:   4    -0.924663156106E+02   -0.69205E-04   -0.17855E-03   120   0.215E-01    0.105E-01
DAV:   5    -0.924663091512E+02    0.64594E-05   -0.96283E-04    96   0.157E-01
  73 F= -.92466309E+02 E0= -.92462344E+02  d E =-.799594E-02
       N       E                     dE             d eps       ncg     rms          rms(c)
DAV:   1    -0.924487563536E+02    0.17559E-01   -0.44648E+00    96   0.167E+01    0.509E-01
DAV:   2    -0.924726149680E+02   -0.23859E-01   -0.30462E-01    96   0.301E+00    0.314E-01
DAV:   3    -0.924736207196E+02   -0.10058E-02   -0.17583E-02   152   0.735E-01    0.266E-01
DAV:   4    -0.924734722130E+02    0.14851E-03   -0.80440E-03   136   0.530E-01    0.202E-01
DAV:   5    -0.924737187705E+02   -0.24656E-03   -0.46187E-03   144   0.347E-01    0.148E-01
DAV:   6    -0.924734850632E+02    0.23371E-03   -0.27777E-03   136   0.273E-01    0.433E-02
DAV:   7    -0.924735151598E+02   -0.30097E-04   -0.23508E-04    80   0.707E-02
  74 F= -.92473515E+02 E0= -.92469812E+02  d E =-.152019E-01
       N       E                     dE             d eps       ncg     rms          rms(c)
DAV:   1    -0.924727617730E+02    0.72329E-03   -0.17011E+00    96   0.105E+01    0.322E-01
DAV:   2    -0.924825009819E+02   -0.97392E-02   -0.12504E-01    96   0.192E+00    0.190E-01
DAV:   3    -0.924829103444E+02   -0.40936E-03   -0.68532E-03   152   0.441E-01    0.166E-01
DAV:   4    -0.924829531419E+02   -0.42797E-04   -0.35047E-03   136   0.307E-01    0.136E-01
DAV:   5    -0.924829741889E+02   -0.21047E-04   -0.19704E-03   128   0.216E-01    0.580E-02
DAV:   6    -0.924829863957E+02   -0.12207E-04   -0.64042E-04    96   0.114E-01
  75 F= -.92482986E+02 E0= -.92479340E+02  d E =-.947124E-02
       N       E                     dE             d eps       ncg     rms          rms(c)
DAV:   1    -0.924664902247E+02    0.16484E-01   -0.35196E+00    96   0.151E+01    0.463E-01
DAV:   2    -0.924869268521E+02   -0.20437E-01   -0.25839E-01   104   0.276E+00    0.275E-01
DAV:   3    -0.924878288967E+02   -0.90204E-03   -0.14990E-02   152   0.644E-01    0.255E-01
DAV:   4    -0.924876867521E+02    0.14214E-03   -0.78452E-03   136   0.445E-01    0.187E-01
DAV:   5    -0.924876929743E+02   -0.62222E-05   -0.35189E-03   144   0.286E-01    0.657E-02
DAV:   6    -0.924877512267E+02   -0.58252E-04   -0.10139E-03   112   0.143E-01    0.560E-02
DAV:   7    -0.924877345702E+02    0.16656E-04   -0.22340E-04    88   0.901E-02
  76 F= -.92487735E+02 E0= -.92484154E+02  d E =-.142194E-01
       N       E                     dE             d eps       ncg     rms          rms(c)
DAV:   1    -0.924860256402E+02    0.17256E-02   -0.15852E+00   104   0.106E+01    0.329E-01
DAV:   2    -0.924972553332E+02   -0.11230E-01   -0.13695E-01   112   0.202E+00    0.309E-01
DAV:   3    -0.924970064840E+02    0.24885E-03   -0.17231E-02   152   0.690E-01    0.241E-01
DAV:   4    -0.924964446828E+02    0.56180E-03   -0.46229E-03   136   0.337E-01    0.860E-02
DAV:   5    -0.924967099928E+02   -0.26531E-03   -0.10644E-03   120   0.152E-01    0.658E-02
DAV:   6    -0.924966959327E+02    0.14060E-04   -0.53507E-04    88   0.123E-01
  77 F= -.92496696E+02 E0= -.92493052E+02  d E =-.896136E-02
       N       E                     dE             d eps       ncg     rms          rms(c)
DAV:   1    -0.924712435470E+02    0.25466E-01   -0.44967E+00   104   0.179E+01    0.546E-01
DAV:   2    -0.925034074039E+02   -0.32164E-01   -0.38707E-01   112   0.339E+00    0.493E-01
DAV:   3    -0.925032790210E+02    0.12838E-03   -0.46348E-02   152   0.113E+00    0.408E-01
DAV:   4    -0.925014222433E+02    0.18568E-02   -0.13440E-02   136   0.632E-01    0.147E-01
DAV:   5    -0.925020109668E+02   -0.58872E-03   -0.30883E-03   128   0.259E-01    0.108E-01
DAV:   6    -0.925019452943E+02    0.65673E-04   -0.15547E-03   112   0.198E-01    0.523E-02
DAV:   7    -0.925019810382E+02   -0.35744E-04   -0.18484E-04    80   0.800E-02
  78 F= -.92501981E+02 E0= -.92498376E+02  d E =-.142465E-01
       N       E                     dE             d eps       ncg     rms          rms(c)
DAV:   1    -0.924973291728E+02    0.46161E-02   -0.23695E+00   104   0.124E+01    0.414E-01
DAV:   2    -0.925122462316E+02   -0.14917E-01   -0.18127E-01   112   0.235E+00    0.478E-01
DAV:   3    -0.925100705876E+02    0.21756E-02   -0.26889E-02   144   0.900E-01    0.250E-01
DAV:   4    -0.925097228262E+02    0.34776E-03   -0.57437E-03   144   0.348E-01    0.116E-01
DAV:   5    -0.925100849513E+02   -0.36213E-03   -0.33742E-03   136   0.263E-01    0.128E-01
DAV:   6    -0.925098900986E+02    0.19485E-03   -0.13839E-03   112   0.187E-01    0.299E-02
DAV:   7    -0.925099493548E+02   -0.59256E-04   -0.88233E-05    72   0.471E-02
  79 F= -.92509949E+02 E0= -.92506258E+02  d E =-.796832E-02
       N       E                     dE             d eps       ncg     rms          rms(c)
DAV:   1    -0.925097634675E+02    0.12663E-03   -0.72708E-02   104   0.216E+00    0.718E-02
DAV:   2    -0.925102156807E+02   -0.45221E-03   -0.55150E-03   112   0.409E-01    0.808E-02
DAV:   3    -0.925101593252E+02    0.56355E-04   -0.74151E-04   112   0.154E-01
  80 F= -.92510159E+02 E0= -.92506495E+02  d E =-.817829E-02
       N       E                     dE             d eps       ncg     rms          rms(c)
DAV:   1    -0.925114811060E+02   -0.12654E-02   -0.52129E-01   112   0.592E+00    0.179E-01
DAV:   2    -0.925146996894E+02   -0.32186E-02   -0.41220E-02   112   0.109E+00    0.114E-01
DAV:   3    -0.925148300989E+02   -0.13041E-03   -0.33346E-03   136   0.290E-01    0.112E-01
DAV:   4    -0.925147416427E+02    0.88456E-04   -0.15930E-03   120   0.177E-01    0.640E-02
DAV:   5    -0.925148136131E+02   -0.71970E-04   -0.64658E-04   104   0.151E-01
  81 F= -.92514814E+02 E0= -.92511020E+02  d E =-.465429E-02
       N       E                     dE             d eps       ncg     rms          rms(c)
DAV:   1    -0.925140706482E+02    0.67099E-03   -0.23912E-01   104   0.401E+00    0.121E-01
DAV:   2    -0.925155317264E+02   -0.14611E-02   -0.18826E-02   112   0.734E-01    0.768E-02
DAV:   3    -0.925155993300E+02   -0.67604E-04   -0.14466E-03   128   0.192E-01    0.705E-02
DAV:   4    -0.925155745647E+02    0.24765E-04   -0.66540E-04    96   0.118E-01
  82 F= -.92515575E+02 E0= -.92511882E+02  d E =-.541524E-02
       N       E                     dE             d eps       ncg     rms          rms(c)
DAV:   1    -0.925152237528E+02    0.37558E-03   -0.62675E-01   104   0.640E+00    0.210E-01
DAV:   2    -0.925187327389E+02   -0.35090E-02   -0.47813E-02   112   0.116E+00    0.157E-01
DAV:   3    -0.925187170726E+02    0.15666E-04   -0.43330E-03   144   0.381E-01    0.137E-01
DAV:   4    -0.925185543770E+02    0.16270E-03   -0.16534E-03   120   0.221E-01    0.688E-02
DAV:   5    -0.925186695972E+02   -0.11522E-03   -0.13066E-03   112   0.165E-01    0.841E-02
DAV:   6    -0.925185704148E+02    0.99182E-04   -0.63883E-04    96   0.110E-01
  83 F= -.92518570E+02 E0= -.92514773E+02  d E =-.299585E-02
       N       E                     dE             d eps       ncg     rms          rms(c)
DAV:   1    -0.925185617792E+02    0.10782E-03   -0.15556E-02   104   0.101E+00    0.332E-02
DAV:   2    -0.925186597765E+02   -0.97997E-04   -0.12039E-03   112   0.184E-01    0.254E-02
DAV:   3    -0.925186638849E+02   -0.41084E-05   -0.13366E-04    80   0.614E-02
  84 F= -.92518664E+02 E0= -.92514883E+02  d E =-.308932E-02
       N       E                     dE             d eps       ncg     rms          rms(c)
DAV:   1    -0.925193486310E+02   -0.68885E-03   -0.38869E-01    96   0.463E+00    0.156E-01
DAV:   2    -0.925209878778E+02   -0.16392E-02   -0.23543E-02   104   0.806E-01    0.966E-02
DAV:   3    -0.925209737822E+02    0.14096E-04   -0.15133E-03   144   0.197E-01    0.672E-02
DAV:   4    -0.925210378180E+02   -0.64036E-04   -0.87224E-04   128   0.175E-01
  85 F= -.92521038E+02 E0= -.92517238E+02  d E =-.237393E-02
       N       E                     dE             d eps       ncg     rms          rms(c)
DAV:   1    -0.925209537092E+02    0.20073E-04   -0.41868E-02    96   0.152E+00    0.615E-02
DAV:   2    -0.925211925208E+02   -0.23881E-03   -0.30984E-03   120   0.310E-01    0.762E-02
DAV:   3    -0.925211155712E+02    0.76950E-04   -0.74204E-04   104   0.139E-01
  86 F= -.92521116E+02 E0= -.92517438E+02  d E =-.245169E-02
       N       E                     dE             d eps       ncg     rms          rms(c)
DAV:   1    -0.925220926198E+02   -0.90010E-03   -0.21484E-01   104   0.357E+00    0.125E-01
DAV:   2    -0.925230025329E+02   -0.90991E-03   -0.13842E-02   112   0.637E-01    0.752E-02
DAV:   3    -0.925230493241E+02   -0.46791E-04   -0.95696E-04   144   0.161E-01
  87 F= -.92523049E+02 E0= -.92519341E+02  d E =-.193375E-02
       N       E                     dE             d eps       ncg     rms          rms(c)
DAV:   1    -0.925221863074E+02    0.81623E-03   -0.40512E-01   104   0.491E+00    0.182E-01
DAV:   2    -0.925240102802E+02   -0.18240E-02   -0.26699E-02   112   0.889E-01    0.145E-01
DAV:   3    -0.925241066213E+02   -0.96341E-04   -0.45786E-03   152   0.332E-01    0.149E-01
DAV:   4    -0.925238767969E+02    0.22982E-03   -0.19780E-03   128   0.213E-01    0.517E-02
DAV:   5    -0.925239647173E+02   -0.87920E-04   -0.39939E-04    80   0.127E-01
  88 F= -.92523965E+02 E0= -.92520097E+02  d E =-.284915E-02
       N       E                     dE             d eps       ncg     rms          rms(c)
DAV:   1    -0.925241525178E+02   -0.27572E-03   -0.30788E-01   104   0.447E+00    0.144E-01
DAV:   2    -0.925258083227E+02   -0.16558E-02   -0.22504E-02   112   0.797E-01    0.111E-01
DAV:   3    -0.925259172210E+02   -0.10890E-03   -0.28021E-03   144   0.274E-01    0.119E-01
DAV:   4    -0.925257584500E+02    0.15877E-03   -0.11557E-03   112   0.167E-01    0.393E-02
DAV:   5    -0.925258113737E+02   -0.52924E-04   -0.14363E-04    64   0.689E-02
  89 F= -.92525811E+02 E0= -.92521885E+02  d E =-.184666E-02
       N       E                     dE             d eps       ncg     rms          rms(c)
DAV:   1    -0.925244172548E+02    0.13412E-02   -0.40050E-01   104   0.510E+00    0.161E-01
DAV:   2    -0.925265645867E+02   -0.21473E-02   -0.29224E-02   104   0.910E-01    0.122E-01
DAV:   3    -0.925267125481E+02   -0.14796E-03   -0.33992E-03   152   0.310E-01    0.135E-01
DAV:   4    -0.925265020982E+02    0.21045E-03   -0.14130E-03   112   0.188E-01    0.451E-02
DAV:   5    -0.925265747327E+02   -0.72634E-04   -0.34113E-04    88   0.898E-02
  90 F= -.92526575E+02 E0= -.92522568E+02  d E =-.261002E-02
       N       E                     dE             d eps       ncg     rms          rms(c)
DAV:   1    -0.925268635355E+02   -0.36144E-03   -0.30222E-01   104   0.423E+00    0.128E-01
DAV:   2    -0.925284189993E+02   -0.15555E-02   -0.19906E-02   112   0.747E-01    0.823E-02
DAV:   3    -0.925284660884E+02   -0.47089E-04   -0.13066E-03   144   0.178E-01    0.692E-02
DAV:   4    -0.925284699670E+02   -0.38786E-05   -0.73672E-04    96   0.131E-01
  91 F= -.92528470E+02 E0= -.92524590E+02  d E =-.189523E-02
       N       E                     dE             d eps       ncg     rms          rms(c)
DAV:   1    -0.925267642252E+02    0.17019E-02   -0.45248E-01   104   0.518E+00    0.161E-01
DAV:   2    -0.925292581484E+02   -0.24939E-02   -0.30746E-02   112   0.941E-01    0.148E-01
DAV:   3    -0.925292212366E+02    0.36912E-04   -0.38229E-03   152   0.315E-01    0.123E-01
DAV:   4    -0.925290918108E+02    0.12943E-03   -0.12038E-03   112   0.176E-01    0.473E-02
DAV:   5    -0.925291643469E+02   -0.72536E-04   -0.39084E-04    88   0.994E-02
  92 F= -.92529164E+02 E0= -.92525553E+02  d E =-.258961E-02
       N       E                     dE             d eps       ncg     rms          rms(c)
DAV:   1    -0.925296694282E+02   -0.57762E-03   -0.14858E-01   104   0.283E+00    0.934E-02
DAV:   2    -0.925302899488E+02   -0.62052E-03   -0.86612E-03   112   0.492E-01    0.584E-02
DAV:   3    -0.925303246399E+02   -0.34691E-04   -0.60190E-04   128   0.127E-01
  93 F= -.92530325E+02 E0= -.92526594E+02  d E =-.116029E-02
       N       E                     dE             d eps       ncg     rms          rms(c)
DAV:   1    -0.925293630428E+02    0.92691E-03   -0.38459E-01   104   0.456E+00    0.162E-01
DAV:   2    -0.925309192869E+02   -0.15562E-02   -0.22741E-02   112   0.806E-01    0.109E-01
DAV:   3    -0.925310803733E+02   -0.16109E-03   -0.30447E-03   144   0.302E-01    0.131E-01
DAV:   4    -0.925309035659E+02    0.17681E-03   -0.16770E-03   120   0.201E-01    0.516E-02
DAV:   5    -0.925309398703E+02   -0.36304E-04   -0.22986E-04    80   0.972E-02
  94 F= -.92530940E+02 E0= -.92527286E+02  d E =-.177552E-02
       N       E                     dE             d eps       ncg     rms          rms(c)
DAV:   1    -0.925318315309E+02   -0.92796E-03   -0.99061E-02   104   0.201E+00    0.755E-02
DAV:   2    -0.925320841911E+02   -0.25266E-03   -0.41947E-03   120   0.331E-01    0.516E-02
DAV:   3    -0.925321282288E+02   -0.44038E-04   -0.52822E-04   104   0.124E-01
  95 F= -.92532128E+02 E0= -.92528400E+02  d E =-.118836E-02
       N       E                     dE             d eps       ncg     rms          rms(c)
DAV:   1    -0.925310124575E+02    0.10717E-02   -0.88650E-01   104   0.600E+00    0.232E-01
DAV:   2    -0.925331088140E+02   -0.20964E-02   -0.37222E-02   112   0.998E-01    0.155E-01
DAV:   3    -0.925332157777E+02   -0.10696E-03   -0.43365E-03   136   0.323E-01    0.145E-01
DAV:   4    -0.925330470833E+02    0.16869E-03   -0.29560E-03   136   0.250E-01    0.777E-02
DAV:   5    -0.925331113705E+02   -0.64287E-04   -0.10427E-03   104   0.155E-01    0.693E-02
DAV:   6    -0.925330467035E+02    0.64667E-04   -0.32229E-04    88   0.115E-01
  96 F= -.92533047E+02 E0= -.92529427E+02  d E =-.210683E-02
       N       E                     dE             d eps       ncg     rms          rms(c)
DAV:   1    -0.925347189466E+02   -0.16076E-02   -0.13592E-01    96   0.199E+00    0.148E-01
DAV:   2    -0.925350466320E+02   -0.32769E-03   -0.98768E-03   128   0.444E-01    0.199E-01
DAV:   3    -0.925345163377E+02    0.53029E-03   -0.39024E-03   136   0.309E-01    0.801E-02
DAV:   4    -0.925344883604E+02    0.27977E-04   -0.71339E-04   104   0.120E-01
  97 F= -.92534488E+02 E0= -.92530679E+02  d E =-.144166E-02
       N       E                     dE             d eps       ncg     rms          rms(c)
DAV:   1    -0.925346782410E+02   -0.16190E-03   -0.78478E-03    96   0.475E-01    0.457E-02
DAV:   2    -0.925347396660E+02   -0.61425E-04   -0.11221E-03   128   0.169E-01    0.717E-02
DAV:   3    -0.925346430170E+02    0.96649E-04   -0.41183E-04    80   0.111E-01
  98 F= -.92534643E+02 E0= -.92530891E+02  d E =-.159631E-02
