 vasp.6.4.1 05Apr23 (build May 06 2024 18:04:33) complex                        
  
 executed on             LinuxIFC date 2024.07.12  12:31:40
 running   32 mpi-ranks, on    1 nodes
 distrk:  each k-point on   32 cores,    1 groups
 distr:  one band on NCORE=   8 cores,    4 groups


--------------------------------------------------------------------------------------------------------


 INCAR:
   SIGMA = 0.100000
   GGA = PE
   PREC = Normal
   IBRION = 2
   ISMEAR = 0
   LORBIT = 10
   NSW = 500
   NCORE = 8
   LASPH = .TRUE.
   LCHARG = .FALSE.
   LWAVE = .FALSE.
   LREAL = Auto

 POTCAR:    PAW_PBE Ti_sv 26Sep2005               
 POTCAR:    PAW_PBE Al 04Jan2001                  
 POTCAR:    PAW_PBE B 06Sep2000                   
 POTCAR:    PAW_PBE Ti_sv 26Sep2005               
   SHA256 =  4d747badb5a5ea28d858fbac70885b3f8929d6fd9e5b0dbe1ecb9878dc164da1 Ti_sv/POTCAR          
   COPYR  = (c) Copyright 26Sep2005 Georg Kresse                                                    
   COPYR  = This file is part of the software VASP. Any use, copying, and all other rights are regul
   COPYR  = If you do not have a valid VASP license, you may not use, copy or distribute this file. 
   VRHFIN =Ti: 3p4s3d                                                                               
   LEXCH  = PE                                                                                      
   EATOM  =  1588.0892 eV,  116.7213 Ry                                                             
                                                                                                    
   TITEL  = PAW_PBE Ti_sv 26Sep2005                                                                 
   LULTRA =        F    use ultrasoft PP ?                                                          
   IUNSCR =        1    unscreen: 0-lin 1-nonlin 2-no                                               
   RPACOR =    2.000    partial core radius                                                         
   POMASS =   47.880; ZVAL   =   12.000    mass and valenz                                          
   RCORE  =    2.300    outmost cutoff radius                                                       
   RWIGS  =    2.300; RWIGS  =    1.217    wigner-seitz radius (au A)                               
   ENMAX  =  274.610; ENMIN  =  205.957 eV                                                          
   ICORE  =        3    local potential                                                             
   LCOR   =        T    correct aug charges                                                         
   LPAW   =        T    paw PP                                                                      
   EAUG   =  482.848                                                                                
   RMAX   =    2.348    core radius for proj-oper                                                   
   RAUG   =    1.300    factor for augmentation sphere                                              
   RDEP   =    2.381    radius for radial grids                                                     
   RDEPT  =    1.930    core radius for aug-charge                                                  
                                                                                                    
   Atomic configuration                                                                             
    8 entries                                                                                       
     n  l   j            E        occ.                                                              
     1  0  0.50     -4865.3608   2.0000                                                             
     2  0  0.50      -533.1368   2.0000                                                             
     2  1  1.50      -440.5031   6.0000                                                             
     3  0  0.50       -59.3186   2.0000                                                             
     4  0  0.50        -3.7291   1.0000                                                             
     3  1  1.50       -35.7012   6.0000                                                             
     3  2  2.50        -1.9157   3.0000                                                             
     4  3  2.50        -1.3606   0.0000                                                             
   Description                                                                                      
     l       E           TYP  RCUT    TYP  RCUT                                                     
     0    -59.3185931     23  1.800                                                                 
     0     -3.7290822     23  2.300                                                                 
     1    -35.7012045     23  2.300                                                                 
     1     -1.3605826     23  2.300                                                                 
     2     -1.9156920     23  2.300                                                                 
     2     -0.0236318     23  2.300                                                                 
     3     -1.3605826     23  2.300                                                                 
  local pseudopotential read in
  partial core-charges read in
  partial kinetic energy density read in
  atomic valenz-charges read in
  non local Contribution for L=           0  read in
    real space projection operators read in
  non local Contribution for L=           0  read in
    real space projection operators read in
  non local Contribution for L=           1  read in
    real space projection operators read in
  non local Contribution for L=           1  read in
    real space projection operators read in
  non local Contribution for L=           2  read in
    real space projection operators read in
  non local Contribution for L=           2  read in
    real space projection operators read in
    PAW grid and wavefunctions read in
 
   number of l-projection  operators is LMAX  =           6
   number of lm-projection operators is LMMAX =          18
 
 POTCAR:    PAW_PBE Al 04Jan2001                  
   SHA256 =  17880443556af62b473fe41b62a467bd001ad55d2cabe504a3f22e34d4e9db96 Al/POTCAR             
   COPYR  = (c) Copyright 04Jan2001 Georg Kresse                                                    
   COPYR  = This file is part of the software VASP. Any use, copying, and all other rights are regul
   COPYR  = If you do not have a valid VASP license, you may not use, copy or distribute this file. 
   VRHFIN =Al: s2p1                                                                                 
   LEXCH  = PE                                                                                      
   EATOM  =    53.5387 eV,    3.9350 Ry                                                             
                                                                                                    
   TITEL  = PAW_PBE Al 04Jan2001                                                                    
   LULTRA =        F    use ultrasoft PP ?                                                          
   IUNSCR =        1    unscreen: 0-lin 1-nonlin 2-no                                               
   RPACOR =    1.500    partial core radius                                                         
   POMASS =   26.981; ZVAL   =    3.000    mass and valenz                                          
   RCORE  =    1.900    outmost cutoff radius                                                       
   RWIGS  =    2.650; RWIGS  =    1.402    wigner-seitz radius (au A)                               
   ENMAX  =  240.300; ENMIN  =  180.225 eV                                                          
   ICORE  =        2    local potential                                                             
   LCOR   =        T    correct aug charges                                                         
   LPAW   =        T    paw PP                                                                      
   EAUG   =  291.052                                                                                
   DEXC   =    0.000                                                                                
   RMAX   =    1.939    core radius for proj-oper                                                   
   RAUG   =    1.300    factor for augmentation sphere                                              
   RDEP   =    1.966    radius for radial grids                                                     
   RDEPT  =    1.856    core radius for aug-charge                                                  
                                                                                                    
   Atomic configuration                                                                             
    6 entries                                                                                       
     n  l   j            E        occ.                                                              
     1  0  0.50     -1511.1048   2.0000                                                             
     2  0  0.50      -108.1629   2.0000                                                             
     2  1  1.50       -69.6402   6.0000                                                             
     3  0  0.50        -7.7528   2.0000                                                             
     3  1  1.50        -2.7121   1.0000                                                             
     3  2  2.50        -2.7212   0.0000                                                             
   Description                                                                                      
     l       E           TYP  RCUT    TYP  RCUT                                                     
     0     -7.7528455     23  1.900                                                                 
     0     -3.3096929     23  1.900                                                                 
     1     -2.7120682     23  1.900                                                                 
     1     13.6058260     23  1.900                                                                 
     2     -2.7211652      7  1.900                                                                 
  local pseudopotential read in
  partial core-charges read in
  partial kinetic energy density read in
  atomic valenz-charges read in
  non local Contribution for L=           0  read in
    real space projection operators read in
  non local Contribution for L=           0  read in
    real space projection operators read in
  non local Contribution for L=           1  read in
    real space projection operators read in
  non local Contribution for L=           1  read in
    real space projection operators read in
    PAW grid and wavefunctions read in
 
   number of l-projection  operators is LMAX  =           4
   number of lm-projection operators is LMMAX =           8
 
 POTCAR:    PAW_PBE B 06Sep2000                   
   SHA256 =  a32ced30f5ae56fd4d10b4325ff17eb3e4e38ee0f4288bc219fb012fddfa6e97 B/POTCAR              
   COPYR  = (c) Copyright 06Sep2000 Georg Kresse                                                    
   COPYR  = This file is part of the software VASP. Any use, copying, and all other rights are regul
   COPYR  = If you do not have a valid VASP license, you may not use, copy or distribute this file. 
   VRHFIN =B: s2p1                                                                                  
   LEXCH  = PE                                                                                      
   EATOM  =    71.1703 eV,    5.2309 Ry                                                             
                                                                                                    
   TITEL  = PAW_PBE B 06Sep2000                                                                     
   LULTRA =        F    use ultrasoft PP ?                                                          
   IUNSCR =        1    unscreen: 0-lin 1-nonlin 2-no                                               
   RPACOR =    1.200    partial core radius                                                         
   POMASS =   10.811; ZVAL   =    3.000    mass and valenz                                          
   RCORE  =    1.700    outmost cutoff radius                                                       
   RWIGS  =    1.710; RWIGS  =    0.905    wigner-seitz radius (au A)                               
   ENMAX  =  318.614; ENMIN  =  238.960 eV                                                          
   ICORE  =        2    local potential                                                             
   LCOR   =        T    correct aug charges                                                         
   LPAW   =        T    paw PP                                                                      
   EAUG   =  535.514                                                                                
   DEXC   =    0.000                                                                                
   RMAX   =    1.732    core radius for proj-oper                                                   
   RAUG   =    1.300    factor for augmentation sphere                                              
   RDEP   =    1.757    radius for radial grids                                                     
   RDEPT  =    1.436    core radius for aug-charge                                                  
                                                                                                    
   Atomic configuration                                                                             
    4 entries                                                                                       
     n  l   j            E        occ.                                                              
     1  0  0.50      -180.5896   2.0000                                                             
     2  0  0.50        -9.4431   2.0000                                                             
     2  1  0.50        -3.6068   1.0000                                                             
     3  2  1.50        -4.0817   0.0000                                                             
   Description                                                                                      
     l       E           TYP  RCUT    TYP  RCUT                                                     
     0     -9.4430752     23  1.500                                                                 
     0      0.8675899     23  1.500                                                                 
     1     -3.6067955     23  1.700                                                                 
     1      6.1086146     23  1.700                                                                 
     2     -4.0817478      7  1.700                                                                 
  local pseudopotential read in
  partial core-charges read in
  partial kinetic energy density read in
  atomic valenz-charges read in
  non local Contribution for L=           0  read in
    real space projection operators read in
  non local Contribution for L=           0  read in
    real space projection operators read in
  non local Contribution for L=           1  read in
    real space projection operators read in
  non local Contribution for L=           1  read in
    real space projection operators read in
    PAW grid and wavefunctions read in
 
   number of l-projection  operators is LMAX  =           4
   number of lm-projection operators is LMMAX =           8
 
 Optimization of the real space projectors (new method)

 maximal supplied QI-value         = 16.25
 optimisation between [QCUT,QGAM] = [  9.10, 18.20] = [ 23.19, 92.78] Ry 
 Optimized for a Real-space Cutoff    1.50 Angstroem

   l    n(q)    QCUT    max X(q) W(low)/X(q) W(high)/X(q)  e(spline) 
   0      8     9.101    12.277    0.37E-04    0.34E-04    0.22E-07
   0      8     9.101    11.419    0.55E-04    0.79E-04    0.37E-07
   1      8     9.101     4.010    0.10E-03    0.23E-04    0.81E-07
   1      8     9.101     6.182    0.31E-03    0.17E-03    0.18E-06
   2      7     9.101    47.177    0.44E-03    0.41E-03    0.22E-06
   2      7     9.101    42.437    0.43E-03    0.40E-03    0.21E-06
 Optimization of the real space projectors (new method)

 maximal supplied QI-value         = 19.84
 optimisation between [QCUT,QGAM] = [  9.13, 18.25] = [ 23.33, 93.32] Ry 
 Optimized for a Real-space Cutoff    1.26 Angstroem

   l    n(q)    QCUT    max X(q) W(low)/X(q) W(high)/X(q)  e(spline) 
   0      7     9.127   176.870    0.31E-03    0.39E-03    0.66E-07
   0      7     9.127   105.762    0.31E-03    0.39E-03    0.65E-07
   1      6     9.127    55.370    0.10E-03    0.67E-03    0.11E-06
   1      6     9.127    20.208    0.90E-04    0.60E-03    0.11E-06
 Optimization of the real space projectors (new method)

 maximal supplied QI-value         = 22.11
 optimisation between [QCUT,QGAM] = [  9.07, 18.13] = [ 23.01, 92.04] Ry 
 Optimized for a Real-space Cutoff    1.46 Angstroem

   l    n(q)    QCUT    max X(q) W(low)/X(q) W(high)/X(q)  e(spline) 
   0      8     9.065    53.033    0.38E-03    0.70E-03    0.20E-06
   0      8     9.065    34.740    0.38E-03    0.69E-03    0.20E-06
   1      7     9.065    30.949    0.34E-03    0.21E-03    0.23E-06
   1      7     9.065    19.518    0.31E-03    0.17E-03    0.22E-06
  PAW_PBE Ti_sv 26Sep2005               :
 energy of atom  1       EATOM=-1588.0892
 kinetic energy error for atom=    0.0422 (will be added to EATOM!!)
  PAW_PBE Al 04Jan2001                  :
 energy of atom  2       EATOM=  -53.5387
 kinetic energy error for atom=    0.0008 (will be added to EATOM!!)
  PAW_PBE B 06Sep2000                   :
 energy of atom  3       EATOM=  -71.1703
 kinetic energy error for atom=    0.0071 (will be added to EATOM!!)
 
 
 POSCAR: Ti Al  B
  positions in cartesian coordinates
  No initial velocities read in
 exchange correlation table for  LEXCH =        8
   RHO(1)=    0.500       N(1)  =     2000
   RHO(2)=  100.500       N(2)  =     4000
 


--------------------------------------------------------------------------------------------------------


 ion  position               nearest neighbor table
   1  0.415  0.390  0.532-  14 1.41   9 2.26  11 2.34
   2  0.595  0.505  0.342-  15 2.35
   3  0.683  0.682  0.599-   6 2.80
   4  0.572  0.364  0.424-   9 1.99
   5  0.575  0.436  0.668-   8 1.88  12 2.40
   6  0.752  0.566  0.630-   3 2.80
   7  0.505  0.586  0.598-  18 1.08  16 1.91
   8  0.580  0.439  0.568-   5 1.88   9 1.93
   9  0.522  0.387  0.511-   8 1.93   4 1.99   1 2.26
  10  0.320  0.391  0.388-
  11  0.418  0.330  0.425-  14 2.15   1 2.34
  12  0.464  0.464  0.644-   5 2.40
  13  0.526  0.661  0.386-
  14  0.409  0.427  0.469-   1 1.41  11 2.15
  15  0.523  0.493  0.438-   2 2.35
  16  0.582  0.550  0.557-  18 1.35   7 1.91
  17  0.402  0.574  0.614-
  18  0.519  0.565  0.547-   7 1.08  16 1.35
 
 -----------------------------------------------------------------------------
|                                                                             |
|           W    W    AA    RRRRR   N    N  II  N    N   GGGG   !!!           |
|           W    W   A  A   R    R  NN   N  II  NN   N  G    G  !!!           |
|           W    W  A    A  R    R  N N  N  II  N N  N  G       !!!           |
|           W WW W  AAAAAA  RRRRR   N  N N  II  N  N N  G  GGG   !            |
|           WW  WW  A    A  R   R   N   NN  II  N   NN  G    G                |
|           W    W  A    A  R    R  N    N  II  N    N   GGGG   !!!           |
|                                                                             |
|     The distance between some ions is very small. Please check the          |
|     nearest-neighbor list in the OUTCAR file.                               |
|     I HOPE YOU KNOW WHAT YOU ARE DOING!                                     |
|                                                                             |
 -----------------------------------------------------------------------------

  LATTYP: Found a simple orthorhombic cell.
 ALAT       =    18.7770921638
 B/A-ratio  =     1.0747575963
 C/A-ratio  =     1.1044721563
  
  Lattice vectors:
  
 A1 = (   0.0000000000,   0.0000000000, -18.7770921638)
 A2 = (   0.0000000000,  20.1808224396,   0.0000000000)
 A3 = (  20.7387754714,   0.0000000000,   0.0000000000)


Analysis of symmetry for initial positions (statically):
=====================================================================
 Subroutine PRICEL returns:
 Original cell was already a primitive cell.
 

 Routine SETGRP: Setting up the symmetry group for a 
 simple orthorhombic supercell.


 Subroutine GETGRP returns: Found  1 space group operations
 (whereof  1 operations were pure point group operations)
 out of a pool of  8 trial point group operations.


The static configuration has the point symmetry C_1 .


Analysis of symmetry for dynamics (positions and initial velocities):
=====================================================================
 Subroutine PRICEL returns:
 Original cell was already a primitive cell.
 

 Routine SETGRP: Setting up the symmetry group for a 
 simple orthorhombic supercell.


 Subroutine GETGRP returns: Found  1 space group operations
 (whereof  1 operations were pure point group operations)
 out of a pool of  8 trial point group operations.


The dynamic configuration has the point symmetry C_1 .


 Subroutine INISYM returns: Found  1 space group operations
 (whereof  1 operations are pure point group operations),
 and found     1 'primitive' translations


----------------------------------------------------------------------------------------

                                     Primitive cell                                     

  volume of cell :    7858.6927

  direct lattice vectors                    reciprocal lattice vectors
    20.738775471  0.000000000  0.000000000     0.048218855  0.000000000  0.000000000
     0.000000000 20.180822440  0.000000000     0.000000000  0.049551994  0.000000000
     0.000000000  0.000000000 18.777092164     0.000000000  0.000000000  0.053256382

  length of vectors
    20.738775471 20.180822440 18.777092164     0.048218855  0.049551994  0.053256382

  position of ions in fractional coordinates (direct lattice)
     0.414607284  0.389799865  0.531678178
     0.595364151  0.504943352  0.341979424
     0.682566774  0.681698053  0.598512585
     0.571882481  0.364018726  0.423515647
     0.574524981  0.435558343  0.667814014
     0.751933295  0.566411469  0.629843460
     0.504750520  0.585907872  0.597757457
     0.579939513  0.439159357  0.567832214
     0.521741025  0.386653212  0.510544456
     0.319691635  0.390967059  0.388498320
     0.417891420  0.329575736  0.424966894
     0.464075933  0.464462740  0.644199140
     0.525792306  0.661264725  0.386001872
     0.408802298  0.427388755  0.468630412
     0.523320274  0.493475368  0.438042537
     0.581983317  0.550396491  0.557485589
     0.401632257  0.573756247  0.613957806
     0.519088348  0.565185574  0.546993388

  ion indices of the primitive-cell ions
   primitive index   ion index
                 1           1
                 2           2
                 3           3
                 4           4
                 5           5
                 6           6
                 7           7
                 8           8
                 9           9
                10          10
                11          11
                12          12
                13          13
                14          14
                15          15
                16          16
                17          17
                18          18

----------------------------------------------------------------------------------------

 
 
 KPOINTS: KPOINTS created by Atomic Simulation Env

Automatic generation of k-mesh.
 Grid dimensions read from file:
 generate k-points for:    1    1    1

 Generating k-lattice:

  Cartesian coordinates                     Fractional coordinates (reciprocal lattice)
     0.048218855  0.000000000  0.000000000     1.000000000  0.000000000  0.000000000
     0.000000000  0.049551994  0.000000000     0.000000000  1.000000000  0.000000000
     0.000000000  0.000000000  0.053256382     0.000000000  0.000000000  1.000000000

  Length of vectors
     0.048218855  0.049551994  0.053256382

  Shift w.r.t. Gamma in fractional coordinates (k-lattice)
     0.000000000  0.000000000  0.000000000

 
 Subroutine IBZKPT returns following result:
 ===========================================
 
 Found      1 irreducible k-points:
 
 Following reciprocal coordinates:
            Coordinates               Weight
  0.000000  0.000000  0.000000      1.000000
 
 Following cartesian coordinates:
            Coordinates               Weight
  0.000000  0.000000  0.000000      1.000000
 


--------------------------------------------------------------------------------------------------------




 Dimension of arrays:
   k-points           NKPTS =      1   k-points in BZ     NKDIM =      1   number of bands    NBANDS=     48
   number of dos      NEDOS =    301   number of ions     NIONS =     18
   non local maximal  LDIM  =      6   non local SUM 2l+1 LMDIM =     18
   total plane-waves  NPLWV = 725760
   max r-space proj   IRMAX =   1360   max aug-charges    IRDMAX=   3793
   dimension x,y,z NGX =    96 NGY =   90 NGZ =   84
   dimension x,y,z NGXF=   192 NGYF=  180 NGZF=  168
   support grid    NGXF=   192 NGYF=  180 NGZF=  168
   ions per type =               2   4  12
   NGX,Y,Z   is equivalent  to a cutoff of   7.70,  7.41,  7.44 a.u.
   NGXF,Y,Z  is equivalent  to a cutoff of  15.39, 14.83, 14.87 a.u.

 SYSTEM =  unknown system                          
 POSCAR =  Ti Al  B                                

 Startparameter for this run:
   NWRITE =      2    write-flag & timer
   PREC   = normal    normal or accurate (medium, high low for compatibility)
   ISTART =      0    job   : 0-new  1-cont  2-samecut
   ICHARG =      2    charge: 1-file 2-atom 10-const
   ISPIN  =      1    spin polarized calculation?
   LNONCOLLINEAR =      F non collinear calculations
   LSORBIT =      F    spin-orbit coupling
   INIWAV =      1    electr: 0-lowe 1-rand  2-diag
   LASPH  =      T    aspherical Exc in radial PAW
 Electronic Relaxation 1
   ENCUT  =  318.6 eV  23.42 Ry    4.84 a.u.  30.18 29.37 27.33*2*pi/ulx,y,z
   ENINI  =  318.6     initial cutoff
   ENAUG  =  535.5 eV  augmentation charge cutoff
   NELM   =     60;   NELMIN=  2; NELMDL= -5     # of ELM steps 
   EDIFF  = 0.1E-03   stopping-criterion for ELM
   LREAL  =      T    real-space projection
   NLSPLINE    = F    spline interpolate recip. space projectors
   LCOMPAT=      F    compatible to vasp.4.4
   GGA_COMPAT  = T    GGA compatible to vasp.4.4-vasp.4.6
   LMAXPAW     = -100 max onsite density
   LMAXMIX     =    2 max onsite mixed and CHGCAR
   VOSKOWN=      0    Vosko Wilk Nusair interpolation
   ROPT   =   -0.00050  -0.00050  -0.00050
 Ionic relaxation
   EDIFFG = 0.1E-02   stopping-criterion for IOM
   NSW    =    500    number of steps for IOM
   NBLOCK =      1;   KBLOCK =    500    inner block; outer block 
   IBRION =      2    ionic relax: 0-MD 1-quasi-New 2-CG
   NFREE  =      1    steps in history (QN), initial steepest desc. (CG)
   ISIF   =      2    stress and relaxation
   IWAVPR =     11    prediction:  0-non 1-charg 2-wave 3-comb
   ISYM   =      2    0-nonsym 1-usesym 2-fastsym
   LCORR  =      T    Harris-Foulkes like correction to forces

   POTIM  = 0.5000    time-step for ionic-motion
   TEIN   =    0.0    initial temperature
   TEBEG  =    0.0;   TEEND  =   0.0 temperature during run
   SMASS  =  -3.00    Nose mass-parameter (am)
   estimated Nose-frequenzy (Omega)   =  0.10E-29 period in steps = 0.13E+47 mass=  -0.983E-26a.u.
   SCALEE = 1.0000    scale energy and forces
   NPACO  =    256;   APACO  = 10.0  distance and # of slots for P.C.
   PSTRESS=    0.0 pullay stress

  Mass of Ions in am
   POMASS =  47.88 26.98 10.81
  Ionic Valenz
   ZVAL   =  12.00  3.00  3.00
  Atomic Wigner-Seitz radii
   RWIGS  =  -1.00 -1.00 -1.00
  virtual crystal weights 
   VCA    =   1.00  1.00  1.00
   NELECT =      72.0000    total number of electrons
   NUPDOWN=      -1.0000    fix difference up-down

 DOS related values:
   EMIN   =  10.00;   EMAX   =-10.00  energy-range for DOS
   EFERMI =   0.00;   METHOD = LEGACY      
   ISMEAR =     0;   SIGMA  =   0.10  broadening in eV -4-tet -1-fermi 0-gaus

 Electronic relaxation 2 (details)
   IALGO  =     38    algorithm
   LDIAG  =      T    sub-space diagonalisation (order eigenvalues)
   LSUBROT=      F    optimize rotation matrix (better conditioning)
   TURBO    =      0    0=normal 1=particle mesh
   IRESTART =      0    0=no restart 2=restart with 2 vectors
   NREBOOT  =      0    no. of reboots
   NMIN     =      0    reboot dimension
   EREF     =   0.00    reference energy to select bands
   IMIX   =      4    mixing-type and parameters
     AMIX     =   0.40;   BMIX     =  1.00
     AMIX_MAG =   1.60;   BMIX_MAG =  1.00
     AMIN     =   0.10
     WC   =   100.;   INIMIX=   1;  MIXPRE=   1;  MAXMIX= -45

 Intra band minimization:
   WEIMIN = 0.0010     energy-eigenvalue tresh-hold
   EBREAK =  0.52E-06  absolut break condition
   DEPER  =   0.30     relativ break condition  

   TIME   =   0.40     timestep for ELM

  volume/ion in A,a.u.               =     436.59      2946.28
  Fermi-wavevector in a.u.,A,eV,Ry     =   0.342559  0.647343  1.596600  0.117347
  Thomas-Fermi vector in A             =   1.248020
 
 Write flags
   LWAVE        =      F    write WAVECAR
   LDOWNSAMPLE  =      F    k-point downsampling of WAVECAR
   LCHARG       =      F    write CHGCAR
   LVTOT        =      F    write LOCPOT, total local potential
   LVHAR        =      F    write LOCPOT, Hartree potential only
   LELF         =      F    write electronic localiz. function (ELF)
   LORBIT       =     10    0 simple, 1 ext, 2 COOP (PROOUT), +10 PAW based schemes


 Dipole corrections
   LMONO  =      F    monopole corrections only (constant potential shift)
   LDIPOL =      F    correct potential (dipole corrections)
   IDIPOL =      0    1-x, 2-y, 3-z, 4-all directions 
   EPSILON=  1.0000000 bulk dielectric constant

 Exchange correlation treatment:
   GGA     =    PE    GGA type
   LEXCH   =     8    internal setting for exchange type
   LIBXC   =     F    Libxc                    
   VOSKOWN =     0    Vosko Wilk Nusair interpolation
   LHFCALC =     F    Hartree Fock is set to
   LHFONE  =     F    Hartree Fock one center treatment
   AEXX    =    0.0000 exact exchange contribution

 Linear response parameters
   LEPSILON=     F    determine dielectric tensor
   LRPA    =     F    only Hartree local field effects (RPA)
   LNABLA  =     F    use nabla operator in PAW spheres
   LVEL    =     F    velocity operator in full k-point grid
   CSHIFT  =0.1000    complex shift for real part using Kramers Kronig
   OMEGAMAX=  -1.0    maximum frequency
   DEG_THRESHOLD= 0.2000000E-02 threshold for treating states as degnerate
   RTIME   =   -0.100 relaxation time in fs
  (WPLASMAI=    0.000 imaginary part of plasma frequency in eV, 0.658/RTIME)
   DFIELD  = 0.0000000 0.0000000 0.0000000 field for delta impulse in time
 
  Optional k-point grid parameters
   LKPOINTS_OPT  =     F    use optional k-point grid
   KPOINTS_OPT_MODE=     1    mode for optional k-point grid
 
 Orbital magnetization related:
   ORBITALMAG=     F  switch on orbital magnetization
   LCHIMAG   =     F  perturbation theory with respect to B field
   DQ        =  0.001000  dq finite difference perturbation B field
   LLRAUG    =     F  two centre corrections for induced B field
   LBONE     =     F  B-component reconstruction in AE one-centre
   LVGVCALC  =     T  calculate vGv susceptibility
   LVGVAPPL  =     F  apply vGv susceptibility instead of pGv for G=0

 Random number generation:
   RANDOM_GENERATOR = DEFAULT
   PCG_SEED         = not used


--------------------------------------------------------------------------------------------------------


 conjugate gradient relaxation of ions
 charge density and potential will be updated during run
 non-spin polarized calculation
 Variant of blocked Davidson
 Davidson routine will perform the subspace rotation
 perform sub-space diagonalisation
    after iterative eigenvector-optimisation
 modified Broyden-mixing scheme, WC =      100.0
 initial mixing is a Kerker type mixing with AMIX =  0.4000 and BMIX =      1.0000
 Hartree-type preconditioning will be used
 using additional bands           12
 real space projection scheme for non local part
 use partial core corrections
 calculate Harris-corrections to forces 
   (improved forces if not selfconsistent)
 use gradient corrections 
 use of overlap-Matrix (Vanderbilt PP)
 Gauss-broadening in eV      SIGMA  =   0.10


--------------------------------------------------------------------------------------------------------


  energy-cutoff  :      318.61
  volume of cell :     7858.69
      direct lattice vectors                 reciprocal lattice vectors
    20.738775471  0.000000000  0.000000000     0.048218855  0.000000000  0.000000000
     0.000000000 20.180822440  0.000000000     0.000000000  0.049551994  0.000000000
     0.000000000  0.000000000 18.777092164     0.000000000  0.000000000  0.053256382

  length of vectors
    20.738775471 20.180822440 18.777092164     0.048218855  0.049551994  0.053256382


 
 k-points in units of 2pi/SCALE and weight: KPOINTS created by Atomic Simulation Env
   0.00000000  0.00000000  0.00000000       1.000
 
 k-points in reciprocal lattice and weights: KPOINTS created by Atomic Simulation Env
   0.00000000  0.00000000  0.00000000       1.000
 
 position of ions in fractional coordinates (direct lattice) 
   0.41460728  0.38979986  0.53167818
   0.59536415  0.50494335  0.34197942
   0.68256677  0.68169805  0.59851259
   0.57188248  0.36401873  0.42351565
   0.57452498  0.43555834  0.66781401
   0.75193329  0.56641147  0.62984346
   0.50475052  0.58590787  0.59775746
   0.57993951  0.43915936  0.56783221
   0.52174102  0.38665321  0.51054446
   0.31969163  0.39096706  0.38849832
   0.41789142  0.32957574  0.42496689
   0.46407593  0.46446274  0.64419914
   0.52579231  0.66126472  0.38600187
   0.40880230  0.42738876  0.46863041
   0.52332027  0.49347537  0.43804254
   0.58198332  0.55039649  0.55748559
   0.40163226  0.57375625  0.61395781
   0.51908835  0.56518557  0.54699339
 
 position of ions in cartesian coordinates  (Angst):
   8.59844738  7.86648186  9.98337015
  12.34712346 10.19017213  6.42137917
  14.15559907 13.75722737 11.23832597
  11.86014237  7.34619727  7.95239234
  11.91494459  8.78992558 12.53960530
  15.59417577 11.43064928 11.82662869
  10.46790771 11.82410272 11.22414687
  12.02723534  8.86259702 10.66223781
  10.82026997  7.80297982  9.58654031
   6.63001303  7.89003679  7.29486876
   8.66655634  6.65110940  7.97964254
   9.62436658  9.37324009 12.09618663
  10.90428858 13.34486600  7.24799274
   8.47805907  8.62505658  8.79951644
  10.85302166  9.95873877  8.22516509
  12.06962134 11.10745385 10.46795828
   8.32936120 11.57887295 11.52834231
  10.76525670 11.40590971 10.27094526
 


--------------------------------------------------------------------------------------------------------


 k-point   1 :   0.0000 0.0000 0.0000  plane waves:  101433

 maximum and minimum number of plane-waves per node :     12689    12672

 maximum number of plane-waves:    101433
 maximum index in each direction: 
   IXMAX=   30   IYMAX=   29   IZMAX=   27
   IXMIN=  -30   IYMIN=  -29   IZMIN=  -27


 real space projection operators:
  total allocation   :       1413.14 KBytes
  max/ min on nodes  :        188.97        163.48


 parallel 3D FFT for wavefunctions:
    minimum data exchange during FFTs selected (reduces bandwidth)
 parallel 3D FFT for charge:
    minimum data exchange during FFTs selected (reduces bandwidth)


 total amount of memory used by VASP MPI-rank0    57423. kBytes
=======================================================================

   base      :      30000. kBytes
   nonlr-proj:        602. kBytes
   fftplans  :       8954. kBytes
   grid      :      15378. kBytes
   one-center:         46. kBytes
   wavefun   :       2443. kBytes
 
     INWAV:  cpu time      0.0000: real time      0.0000
 Broyden mixing: mesh for mixing (old mesh)
   NGX = 61   NGY = 59   NGZ = 55
  (NGX  =192   NGY  =180   NGZ  =168)
  gives a total of 197945 points

 initial charge density was supplied:
 charge density of overlapping atoms calculated
 number of electron      72.0000000 magnetization 
 keeping initial charge density in first step


--------------------------------------------------------------------------------------------------------


 Maximum index for non-local projection operator          164
 Maximum index for augmentation-charges          246 (set IRDMAX)


--------------------------------------------------------------------------------------------------------


 First call to EWALD:  gamma=   0.089
 Maximum number of real-space cells 3x 3x 3
 Maximum number of reciprocal cells 3x 3x 3

    FEWALD:  cpu time      0.0012: real time      0.0012


--------------------------------------- Ionic step        1  -------------------------------------------




--------------------------------------- Iteration      1(   1)  ---------------------------------------


    POTLOK:  cpu time      0.1337: real time      0.1449
    SETDIJ:  cpu time      0.1197: real time      0.1200
     EDDAV:  cpu time      0.3716: real time      0.3729
       DOS:  cpu time      0.0005: real time      0.0005
    --------------------------------------------
      LOOP:  cpu time      0.6254: real time      0.6383

 eigenvalue-minimisations  :   128
 total energy-change (2. order) : 0.3929136E+03  (-0.1667726E+04)
 number of electron      72.0000000 magnetization 
 augmentation part       72.0000000 magnetization 

 Free energy of the ion-electron system (eV)
  ---------------------------------------------------
  alpha Z        PSCENC =         3.99825575
  Ewald energy   TEWEN  =      3425.79271963
  -Hartree energ DENC   =     -6761.89655168
  -exchange      EXHF   =         0.00000000
  -V(xc)+E(xc)   XCENC  =        79.57253523
  PAW double counting   =      3315.92939605    -3138.67763419
  entropy T*S    EENTRO =        -0.13285092
  eigenvalues    EBANDS =      -775.87578552
  atomic energy  EATOM  =      4244.20348233
  Solvation  Ediel_sol  =         0.00000000
  ---------------------------------------------------
  free energy    TOTEN  =       392.91356668 eV

  energy without entropy =      393.04641760  energy(sigma->0) =      392.97999214


--------------------------------------------------------------------------------------------------------




--------------------------------------- Iteration      1(   2)  ---------------------------------------


     EDDAV:  cpu time      0.4341: real time      0.4357
       DOS:  cpu time      0.0010: real time      0.0010
    --------------------------------------------
      LOOP:  cpu time      0.4351: real time      0.4367

 eigenvalue-minimisations  :   160
 total energy-change (2. order) :-0.3323044E+03  (-0.3220197E+03)
 number of electron      72.0000000 magnetization 
 augmentation part       72.0000000 magnetization 

 Free energy of the ion-electron system (eV)
  ---------------------------------------------------
  alpha Z        PSCENC =         3.99825575
  Ewald energy   TEWEN  =      3425.79271963
  -Hartree energ DENC   =     -6761.89655168
  -exchange      EXHF   =         0.00000000
  -V(xc)+E(xc)   XCENC  =        79.57253523
  PAW double counting   =      3315.92939605    -3138.67763419
  entropy T*S    EENTRO =        -0.05460875
  eigenvalues    EBANDS =     -1108.25838819
  atomic energy  EATOM  =      4244.20348233
  Solvation  Ediel_sol  =         0.00000000
  ---------------------------------------------------
  free energy    TOTEN  =        60.60920619 eV

  energy without entropy =       60.66381493  energy(sigma->0) =       60.63651056


--------------------------------------------------------------------------------------------------------




--------------------------------------- Iteration      1(   3)  ---------------------------------------


     EDDAV:  cpu time      0.4367: real time      0.4378
       DOS:  cpu time      0.0010: real time      0.0010
    --------------------------------------------
      LOOP:  cpu time      0.4378: real time      0.4388

 eigenvalue-minimisations  :   160
 total energy-change (2. order) :-0.1210649E+03  (-0.1175728E+03)
 number of electron      72.0000000 magnetization 
 augmentation part       72.0000000 magnetization 

 Free energy of the ion-electron system (eV)
  ---------------------------------------------------
  alpha Z        PSCENC =         3.99825575
  Ewald energy   TEWEN  =      3425.79271963
  -Hartree energ DENC   =     -6761.89655168
  -exchange      EXHF   =         0.00000000
  -V(xc)+E(xc)   XCENC  =        79.57253523
  PAW double counting   =      3315.92939605    -3138.67763419
  entropy T*S    EENTRO =        -0.06966968
  eigenvalues    EBANDS =     -1229.30821980
  atomic energy  EATOM  =      4244.20348233
  Solvation  Ediel_sol  =         0.00000000
  ---------------------------------------------------
  free energy    TOTEN  =       -60.45568636 eV

  energy without entropy =      -60.38601668  energy(sigma->0) =      -60.42085152


--------------------------------------------------------------------------------------------------------




--------------------------------------- Iteration      1(   4)  ---------------------------------------


     EDDAV:  cpu time      0.3613: real time      0.3622
       DOS:  cpu time      0.0011: real time      0.0011
    --------------------------------------------
      LOOP:  cpu time      0.3624: real time      0.3632

 eigenvalue-minimisations  :   128
 total energy-change (2. order) :-0.1791386E+02  (-0.1703564E+02)
 number of electron      72.0000000 magnetization 
 augmentation part       72.0000000 magnetization 

 Free energy of the ion-electron system (eV)
  ---------------------------------------------------
  alpha Z        PSCENC =         3.99825575
  Ewald energy   TEWEN  =      3425.79271963
  -Hartree energ DENC   =     -6761.89655168
  -exchange      EXHF   =         0.00000000
  -V(xc)+E(xc)   XCENC  =        79.57253523
  PAW double counting   =      3315.92939605    -3138.67763419
  entropy T*S    EENTRO =        -0.05400050
  eigenvalues    EBANDS =     -1247.23775222
  atomic energy  EATOM  =      4244.20348233
  Solvation  Ediel_sol  =         0.00000000
  ---------------------------------------------------
  free energy    TOTEN  =       -78.36954960 eV

  energy without entropy =      -78.31554910  energy(sigma->0) =      -78.34254935


--------------------------------------------------------------------------------------------------------




--------------------------------------- Iteration      1(   5)  ---------------------------------------


     EDDAV:  cpu time      0.4317: real time      0.4327
       DOS:  cpu time      0.0010: real time      0.0010
    CHARGE:  cpu time      0.0290: real time      0.0291
    MIXING:  cpu time      0.0044: real time      0.0045
    --------------------------------------------
      LOOP:  cpu time      0.4661: real time      0.4674

 eigenvalue-minimisations  :   160
 total energy-change (2. order) :-0.2208982E+01  (-0.2176314E+01)
 number of electron      72.0000023 magnetization 
 augmentation part        6.5882848 magnetization 

 Broyden mixing:
  rms(total) = 0.29490E+01    rms(broyden)= 0.29479E+01
  rms(prec ) = 0.35970E+01
  weight for this iteration     100.00

 Free energy of the ion-electron system (eV)
  ---------------------------------------------------
  alpha Z        PSCENC =         3.99825575
  Ewald energy   TEWEN  =      3425.79271963
  -Hartree energ DENC   =     -6761.89655168
  -exchange      EXHF   =         0.00000000
  -V(xc)+E(xc)   XCENC  =        79.57253523
  PAW double counting   =      3315.92939605    -3138.67763419
  entropy T*S    EENTRO =        -0.04436958
  eigenvalues    EBANDS =     -1249.45636473
  atomic energy  EATOM  =      4244.20348233
  Solvation  Ediel_sol  =         0.00000000
  ---------------------------------------------------
  free energy    TOTEN  =       -80.57853120 eV

  energy without entropy =      -80.53416161  energy(sigma->0) =      -80.55634640


--------------------------------------------------------------------------------------------------------




--------------------------------------- Iteration      1(   6)  ---------------------------------------


    POTLOK:  cpu time      0.1002: real time      0.1005
    SETDIJ:  cpu time      0.1177: real time      0.1180
     EDDAV:  cpu time      0.4736: real time      0.4747
       DOS:  cpu time      0.0011: real time      0.0011
    CHARGE:  cpu time      0.0307: real time      0.0307
    MIXING:  cpu time      0.0035: real time      0.0035
    --------------------------------------------
      LOOP:  cpu time      0.7268: real time      0.7286

 eigenvalue-minimisations  :   160
 total energy-change (2. order) : 0.5780401E+01  (-0.5359298E+02)
 number of electron      72.0000016 magnetization 
 augmentation part       10.0036023 magnetization 

 Broyden mixing:
  rms(total) = 0.47038E+01    rms(broyden)= 0.47029E+01
  rms(prec ) = 0.58300E+01
  weight for this iteration     100.00

 eigenvalues of (default mixing * dielectric matrix)
  average eigenvalue GAMMA=   0.3484
  0.3484

 Free energy of the ion-electron system (eV)
  ---------------------------------------------------
  alpha Z        PSCENC =         3.99825575
  Ewald energy   TEWEN  =      3425.79271963
  -Hartree energ DENC   =     -6827.79112060
  -exchange      EXHF   =         0.00000000
  -V(xc)+E(xc)   XCENC  =        80.13876747
  PAW double counting   =      4075.04991753    -3899.84314652
  entropy T*S    EENTRO =        -0.06524995
  eigenvalues    EBANDS =     -1176.28175614
  atomic energy  EATOM  =      4244.20348233
  Solvation  Ediel_sol  =         0.00000000
  ---------------------------------------------------
  free energy    TOTEN  =       -74.79813049 eV

  energy without entropy =      -74.73288054  energy(sigma->0) =      -74.76550552


--------------------------------------------------------------------------------------------------------




--------------------------------------- Iteration      1(   7)  ---------------------------------------


    POTLOK:  cpu time      0.0997: real time      0.1007
    SETDIJ:  cpu time      0.1185: real time      0.1188
     EDDAV:  cpu time      0.4125: real time      0.4135
       DOS:  cpu time      0.0011: real time      0.0011
    CHARGE:  cpu time      0.0280: real time      0.0280
    MIXING:  cpu time      0.0035: real time      0.0035
    --------------------------------------------
      LOOP:  cpu time      0.6633: real time      0.6657

 eigenvalue-minimisations  :   152
 total energy-change (2. order) : 0.2364616E+02  (-0.3673795E+02)
 number of electron      72.0000019 magnetization 
 augmentation part        6.3723696 magnetization 

 Broyden mixing:
  rms(total) = 0.15774E+01    rms(broyden)= 0.15757E+01
  rms(prec ) = 0.19915E+01
  weight for this iteration     100.00

 eigenvalues of (default mixing * dielectric matrix)
  average eigenvalue GAMMA=   0.5742
  0.8744  0.2740

 Free energy of the ion-electron system (eV)
  ---------------------------------------------------
  alpha Z        PSCENC =         3.99825575
  Ewald energy   TEWEN  =      3425.79271963
  -Hartree energ DENC   =     -6882.40818321
  -exchange      EXHF   =         0.00000000
  -V(xc)+E(xc)   XCENC  =        82.73900468
  PAW double counting   =      4270.95646903    -4094.65690633
  entropy T*S    EENTRO =        -0.13658271
  eigenvalues    EBANDS =     -1101.64023285
  atomic energy  EATOM  =      4244.20348233
  Solvation  Ediel_sol  =         0.00000000
  ---------------------------------------------------
  free energy    TOTEN  =       -51.15197368 eV

  energy without entropy =      -51.01539097  energy(sigma->0) =      -51.08368233


--------------------------------------------------------------------------------------------------------




--------------------------------------- Iteration      1(   8)  ---------------------------------------


    POTLOK:  cpu time      0.0999: real time      0.1015
    SETDIJ:  cpu time      0.1179: real time      0.1181
     EDDAV:  cpu time      0.4132: real time      0.4142
       DOS:  cpu time      0.0011: real time      0.0011
    CHARGE:  cpu time      0.0296: real time      0.0297
    MIXING:  cpu time      0.0036: real time      0.0036
    --------------------------------------------
      LOOP:  cpu time      0.6652: real time      0.6682

 eigenvalue-minimisations  :   152
 total energy-change (2. order) : 0.1482211E+01  (-0.7264746E+01)
 number of electron      72.0000029 magnetization 
 augmentation part        7.0311620 magnetization 

 Broyden mixing:
  rms(total) = 0.16928E+01    rms(broyden)= 0.16913E+01
  rms(prec ) = 0.21214E+01
  weight for this iteration     100.00

 eigenvalues of (default mixing * dielectric matrix)
  average eigenvalue GAMMA=   0.5117
  0.9739  0.2806  0.2806

 Free energy of the ion-electron system (eV)
  ---------------------------------------------------
  alpha Z        PSCENC =         3.99825575
  Ewald energy   TEWEN  =      3425.79271963
  -Hartree energ DENC   =     -6836.10402902
  -exchange      EXHF   =         0.00000000
  -V(xc)+E(xc)   XCENC  =        81.76695039
  PAW double counting   =      4431.46996957    -4257.20086329
  entropy T*S    EENTRO =        -0.02167199
  eigenvalues    EBANDS =     -1143.57457636
  atomic energy  EATOM  =      4244.20348233
  Solvation  Ediel_sol  =         0.00000000
  ---------------------------------------------------
  free energy    TOTEN  =       -49.66976300 eV

  energy without entropy =      -49.64809101  energy(sigma->0) =      -49.65892700


--------------------------------------------------------------------------------------------------------




--------------------------------------- Iteration      1(   9)  ---------------------------------------


    POTLOK:  cpu time      0.0990: real time      0.0993
    SETDIJ:  cpu time      0.1178: real time      0.1181
     EDDAV:  cpu time      0.4126: real time      0.4136
       DOS:  cpu time      0.0011: real time      0.0011
    CHARGE:  cpu time      0.0299: real time      0.0300
    MIXING:  cpu time      0.0036: real time      0.0036
    --------------------------------------------
      LOOP:  cpu time      0.6640: real time      0.6656

 eigenvalue-minimisations  :   152
 total energy-change (2. order) : 0.3017241E+01  (-0.2249617E+01)
 number of electron      72.0000020 magnetization 
 augmentation part        6.1148250 magnetization 

 Broyden mixing:
  rms(total) = 0.10358E+01    rms(broyden)= 0.10349E+01
  rms(prec ) = 0.12362E+01
  weight for this iteration     100.00

 eigenvalues of (default mixing * dielectric matrix)
  average eigenvalue GAMMA=   0.5414
  1.2090  0.3522  0.3522  0.2524

 Free energy of the ion-electron system (eV)
  ---------------------------------------------------
  alpha Z        PSCENC =         3.99825575
  Ewald energy   TEWEN  =      3425.79271963
  -Hartree energ DENC   =     -6866.44460292
  -exchange      EXHF   =         0.00000000
  -V(xc)+E(xc)   XCENC  =        82.55075512
  PAW double counting   =      4600.09293297    -4424.34903770
  entropy T*S    EENTRO =        -0.12419703
  eigenvalues    EBANDS =     -1112.37282976
  atomic energy  EATOM  =      4244.20348233
  Solvation  Ediel_sol  =         0.00000000
  ---------------------------------------------------
  free energy    TOTEN  =       -46.65252161 eV

  energy without entropy =      -46.52832459  energy(sigma->0) =      -46.59042310


--------------------------------------------------------------------------------------------------------




--------------------------------------- Iteration      1(  10)  ---------------------------------------


    POTLOK:  cpu time      0.0987: real time      0.0990
    SETDIJ:  cpu time      0.1178: real time      0.1180
     EDDAV:  cpu time      0.4127: real time      0.4137
       DOS:  cpu time      0.0011: real time      0.0011
    CHARGE:  cpu time      0.0299: real time      0.0300
    MIXING:  cpu time      0.0037: real time      0.0037
    --------------------------------------------
      LOOP:  cpu time      0.6639: real time      0.6655

 eigenvalue-minimisations  :   152
 total energy-change (2. order) : 0.1207892E+01  (-0.6515972E+00)
 number of electron      72.0000011 magnetization 
 augmentation part        6.6398296 magnetization 

 Broyden mixing:
  rms(total) = 0.59202E+00    rms(broyden)= 0.59100E+00
  rms(prec ) = 0.70023E+00
  weight for this iteration     100.00

 eigenvalues of (default mixing * dielectric matrix)
  average eigenvalue GAMMA=   0.5391
  1.3516  0.3996  0.3996  0.2723  0.2723

 Free energy of the ion-electron system (eV)
  ---------------------------------------------------
  alpha Z        PSCENC =         3.99825575
  Ewald energy   TEWEN  =      3425.79271963
  -Hartree energ DENC   =     -6860.96649153
  -exchange      EXHF   =         0.00000000
  -V(xc)+E(xc)   XCENC  =        82.37052395
  PAW double counting   =      4742.83523943    -4565.68637423
  entropy T*S    EENTRO =        -0.12535392
  eigenvalues    EBANDS =     -1117.86663145
  atomic energy  EATOM  =      4244.20348233
  Solvation  Ediel_sol  =         0.00000000
  ---------------------------------------------------
  free energy    TOTEN  =       -45.44463004 eV

  energy without entropy =      -45.31927612  energy(sigma->0) =      -45.38195308


--------------------------------------------------------------------------------------------------------




--------------------------------------- Iteration      1(  11)  ---------------------------------------


    POTLOK:  cpu time      0.1002: real time      0.1005
    SETDIJ:  cpu time      0.1181: real time      0.1183
     EDDAV:  cpu time      0.4484: real time      0.4495
       DOS:  cpu time      0.0024: real time      0.0024
    CHARGE:  cpu time      0.0303: real time      0.0304
    MIXING:  cpu time      0.0037: real time      0.0037
    --------------------------------------------
      LOOP:  cpu time      0.7031: real time      0.7048

 eigenvalue-minimisations  :   168
 total energy-change (2. order) : 0.2371321E+00  (-0.4188834E+00)
 number of electron      72.0000015 magnetization 
 augmentation part        6.9212628 magnetization 

 Broyden mixing:
  rms(total) = 0.57371E+00    rms(broyden)= 0.57305E+00
  rms(prec ) = 0.71902E+00
  weight for this iteration     100.00

 eigenvalues of (default mixing * dielectric matrix)
  average eigenvalue GAMMA=   0.5371
  1.2533  0.5245  0.5245  0.4159  0.2820  0.2221

 Free energy of the ion-electron system (eV)
  ---------------------------------------------------
  alpha Z        PSCENC =         3.99825575
  Ewald energy   TEWEN  =      3425.79271963
  -Hartree energ DENC   =     -6868.71335866
  -exchange      EXHF   =         0.00000000
  -V(xc)+E(xc)   XCENC  =        82.49950014
  PAW double counting   =      4908.73141379    -4729.67393167
  entropy T*S    EENTRO =        -0.22801763
  eigenvalues    EBANDS =     -1111.81756165
  atomic energy  EATOM  =      4244.20348233
  Solvation  Ediel_sol  =         0.00000000
  ---------------------------------------------------
  free energy    TOTEN  =       -45.20749797 eV

  energy without entropy =      -44.97948035  energy(sigma->0) =      -45.09348916


--------------------------------------------------------------------------------------------------------




--------------------------------------- Iteration      1(  12)  ---------------------------------------


    POTLOK:  cpu time      0.1001: real time      0.1003
    SETDIJ:  cpu time      0.1181: real time      0.1184
     EDDAV:  cpu time      0.4415: real time      0.4426
       DOS:  cpu time      0.0035: real time      0.0035
    CHARGE:  cpu time      0.0323: real time      0.0324
    MIXING:  cpu time      0.0044: real time      0.0044
    --------------------------------------------
      LOOP:  cpu time      0.6999: real time      0.7016

 eigenvalue-minimisations  :   152
 total energy-change (2. order) :-0.3520253E+00  (-0.6231740E+00)
 number of electron      72.0000021 magnetization 
 augmentation part        6.2656815 magnetization 

 Broyden mixing:
  rms(total) = 0.73880E+00    rms(broyden)= 0.73787E+00
  rms(prec ) = 0.91621E+00
  weight for this iteration     100.00

 eigenvalues of (default mixing * dielectric matrix)
  average eigenvalue GAMMA=   0.6266
  1.2719  1.2719  0.7290  0.3412  0.3412  0.2154  0.2154

 Free energy of the ion-electron system (eV)
  ---------------------------------------------------
  alpha Z        PSCENC =         3.99825575
  Ewald energy   TEWEN  =      3425.79271963
  -Hartree energ DENC   =     -6873.82795632
  -exchange      EXHF   =         0.00000000
  -V(xc)+E(xc)   XCENC  =        82.62341593
  PAW double counting   =      4961.93889461    -4781.92843576
  entropy T*S    EENTRO =        -0.08515627
  eigenvalues    EBANDS =     -1108.27474314
  atomic energy  EATOM  =      4244.20348233
  Solvation  Ediel_sol  =         0.00000000
  ---------------------------------------------------
  free energy    TOTEN  =       -45.55952326 eV

  energy without entropy =      -45.47436699  energy(sigma->0) =      -45.51694512


--------------------------------------------------------------------------------------------------------




--------------------------------------- Iteration      1(  13)  ---------------------------------------


    POTLOK:  cpu time      0.1050: real time      0.1061
    SETDIJ:  cpu time      0.1210: real time      0.1213
     EDDAV:  cpu time      0.3957: real time      0.3967
       DOS:  cpu time      0.0035: real time      0.0035
    CHARGE:  cpu time      0.0311: real time      0.0312
    MIXING:  cpu time      0.0042: real time      0.0043
    --------------------------------------------
      LOOP:  cpu time      0.6606: real time      0.6630

 eigenvalue-minimisations  :   144
 total energy-change (2. order) : 0.4378101E+00  (-0.1289774E+00)
 number of electron      72.0000013 magnetization 
 augmentation part        6.4647712 magnetization 

 Broyden mixing:
  rms(total) = 0.38358E+00    rms(broyden)= 0.38324E+00
  rms(prec ) = 0.48477E+00
  weight for this iteration     100.00

 eigenvalues of (default mixing * dielectric matrix)
  average eigenvalue GAMMA=   0.7006
  1.6509  1.6509  0.7785  0.3564  0.3564  0.3808  0.2155  0.2155

 Free energy of the ion-electron system (eV)
  ---------------------------------------------------
  alpha Z        PSCENC =         3.99825575
  Ewald energy   TEWEN  =      3425.79271963
  -Hartree energ DENC   =     -6876.83334488
  -exchange      EXHF   =         0.00000000
  -V(xc)+E(xc)   XCENC  =        82.72354619
  PAW double counting   =      5132.80601029    -4949.98079269
  entropy T*S    EENTRO =        -0.15862961
  eigenvalues    EBANDS =     -1107.67296015
  atomic energy  EATOM  =      4244.20348233
  Solvation  Ediel_sol  =         0.00000000
  ---------------------------------------------------
  free energy    TOTEN  =       -45.12171315 eV

  energy without entropy =      -44.96308353  energy(sigma->0) =      -45.04239834


--------------------------------------------------------------------------------------------------------




--------------------------------------- Iteration      1(  14)  ---------------------------------------


    POTLOK:  cpu time      0.1021: real time      0.1035
    SETDIJ:  cpu time      0.1185: real time      0.1188
     EDDAV:  cpu time      0.4300: real time      0.4310
       DOS:  cpu time      0.0028: real time      0.0028
    CHARGE:  cpu time      0.0301: real time      0.0302
    MIXING:  cpu time      0.0042: real time      0.0042
    --------------------------------------------
      LOOP:  cpu time      0.6876: real time      0.6905

 eigenvalue-minimisations  :   160
 total energy-change (2. order) :-0.2078963E-02  (-0.1946822E+00)
 number of electron      72.0000010 magnetization 
 augmentation part        7.3992079 magnetization 

 Broyden mixing:
  rms(total) = 0.81618E+00    rms(broyden)= 0.81569E+00
  rms(prec ) = 0.10328E+01
  weight for this iteration     100.00

 eigenvalues of (default mixing * dielectric matrix)
  average eigenvalue GAMMA=   0.6517
  1.8973  1.4284  0.8405  0.4076  0.3570  0.3570  0.2076  0.2076  0.1623

 Free energy of the ion-electron system (eV)
  ---------------------------------------------------
  alpha Z        PSCENC =         3.99825575
  Ewald energy   TEWEN  =      3425.79271963
  -Hartree energ DENC   =     -6881.52333797
  -exchange      EXHF   =         0.00000000
  -V(xc)+E(xc)   XCENC  =        82.82664957
  PAW double counting   =      5251.86138070    -5066.76498403
  entropy T*S    EENTRO =        -0.24407113
  eigenvalues    EBANDS =     -1105.27388696
  atomic energy  EATOM  =      4244.20348233
  Solvation  Ediel_sol  =         0.00000000
  ---------------------------------------------------
  free energy    TOTEN  =       -45.12379211 eV

  energy without entropy =      -44.87972098  energy(sigma->0) =      -45.00175655


--------------------------------------------------------------------------------------------------------




--------------------------------------- Iteration      1(  15)  ---------------------------------------


    POTLOK:  cpu time      0.1005: real time      0.1008
    SETDIJ:  cpu time      0.1170: real time      0.1173
     EDDAV:  cpu time      0.3941: real time      0.3952
       DOS:  cpu time      0.0027: real time      0.0027
    CHARGE:  cpu time      0.0314: real time      0.0315
    MIXING:  cpu time      0.0042: real time      0.0043
    --------------------------------------------
      LOOP:  cpu time      0.6500: real time      0.6517

 eigenvalue-minimisations  :   144
 total energy-change (2. order) : 0.1443701E+00  (-0.2155560E+00)
 number of electron      72.0000013 magnetization 
 augmentation part        6.5972535 magnetization 

 Broyden mixing:
  rms(total) = 0.24732E+00    rms(broyden)= 0.24673E+00
  rms(prec ) = 0.30906E+00
  weight for this iteration     100.00

 eigenvalues of (default mixing * dielectric matrix)
  average eigenvalue GAMMA=   0.6824
  1.9650  1.7891  0.6623  0.6623  0.4619  0.3488  0.3488  0.2080  0.2080  0.1696

 Free energy of the ion-electron system (eV)
  ---------------------------------------------------
  alpha Z        PSCENC =         3.99825575
  Ewald energy   TEWEN  =      3425.79271963
  -Hartree energ DENC   =     -6885.19718420
  -exchange      EXHF   =         0.00000000
  -V(xc)+E(xc)   XCENC  =        82.92471680
  PAW double counting   =      5268.07560725    -5082.69275401
  entropy T*S    EENTRO =        -0.19400167
  eigenvalues    EBANDS =     -1101.89026391
  atomic energy  EATOM  =      4244.20348233
  Solvation  Ediel_sol  =         0.00000000
  ---------------------------------------------------
  free energy    TOTEN  =       -44.97942203 eV

  energy without entropy =      -44.78542037  energy(sigma->0) =      -44.88242120


--------------------------------------------------------------------------------------------------------




--------------------------------------- Iteration      1(  16)  ---------------------------------------


    POTLOK:  cpu time      0.1009: real time      0.1011
    SETDIJ:  cpu time      0.1178: real time      0.1181
     EDDAV:  cpu time      0.4153: real time      0.4163
       DOS:  cpu time      0.0029: real time      0.0029
    CHARGE:  cpu time      0.0315: real time      0.0316
    MIXING:  cpu time      0.0044: real time      0.0044
    --------------------------------------------
      LOOP:  cpu time      0.6728: real time      0.6745

 eigenvalue-minimisations  :   152
 total energy-change (2. order) :-0.1711962E-02  (-0.2259935E-01)
 number of electron      72.0000011 magnetization 
 augmentation part        6.7182391 magnetization 

 Broyden mixing:
  rms(total) = 0.92874E-01    rms(broyden)= 0.92171E-01
  rms(prec ) = 0.11972E+00
  weight for this iteration     100.00

 eigenvalues of (default mixing * dielectric matrix)
  average eigenvalue GAMMA=   0.6968
  2.0284  2.0284  0.7552  0.7552  0.5063  0.3470  0.3470  0.3205  0.2119  0.2119
  0.1525

 Free energy of the ion-electron system (eV)
  ---------------------------------------------------
  alpha Z        PSCENC =         3.99825575
  Ewald energy   TEWEN  =      3425.79271963
  -Hartree energ DENC   =     -6888.32410662
  -exchange      EXHF   =         0.00000000
  -V(xc)+E(xc)   XCENC  =        83.00409498
  PAW double counting   =      5293.90992426    -5107.51993450
  entropy T*S    EENTRO =        -0.19410268
  eigenvalues    EBANDS =     -1099.85146714
  atomic energy  EATOM  =      4244.20348233
  Solvation  Ediel_sol  =         0.00000000
  ---------------------------------------------------
  free energy    TOTEN  =       -44.98113399 eV

  energy without entropy =      -44.78703131  energy(sigma->0) =      -44.88408265


--------------------------------------------------------------------------------------------------------




--------------------------------------- Iteration      1(  17)  ---------------------------------------


    POTLOK:  cpu time      0.1008: real time      0.1010
    SETDIJ:  cpu time      0.1181: real time      0.1184
     EDDAV:  cpu time      0.3959: real time      0.3969
       DOS:  cpu time      0.0029: real time      0.0029
    CHARGE:  cpu time      0.0315: real time      0.0315
    MIXING:  cpu time      0.0046: real time      0.0046
    --------------------------------------------
      LOOP:  cpu time      0.6536: real time      0.6553

 eigenvalue-minimisations  :   144
 total energy-change (2. order) :-0.4702545E-02  (-0.9459816E-02)
 number of electron      72.0000012 magnetization 
 augmentation part        6.5917024 magnetization 

 Broyden mixing:
  rms(total) = 0.17149E+00    rms(broyden)= 0.17135E+00
  rms(prec ) = 0.22034E+00
  weight for this iteration     100.00

 eigenvalues of (default mixing * dielectric matrix)
  average eigenvalue GAMMA=   0.7741
  2.5306  1.9480  1.1870  0.7590  0.7590  0.4694  0.3486  0.3486  0.3622  0.2122
  0.2122  0.1523

 Free energy of the ion-electron system (eV)
  ---------------------------------------------------
  alpha Z        PSCENC =         3.99825575
  Ewald energy   TEWEN  =      3425.79271963
  -Hartree energ DENC   =     -6890.53580740
  -exchange      EXHF   =         0.00000000
  -V(xc)+E(xc)   XCENC  =        83.05744025
  PAW double counting   =      5291.75215267    -5104.96332424
  entropy T*S    EENTRO =        -0.18724044
  eigenvalues    EBANDS =     -1098.10351508
  atomic energy  EATOM  =      4244.20348233
  Solvation  Ediel_sol  =         0.00000000
  ---------------------------------------------------
  free energy    TOTEN  =       -44.98583654 eV

  energy without entropy =      -44.79859610  energy(sigma->0) =      -44.89221632


--------------------------------------------------------------------------------------------------------




--------------------------------------- Iteration      1(  18)  ---------------------------------------


    POTLOK:  cpu time      0.1010: real time      0.1013
    SETDIJ:  cpu time      0.1182: real time      0.1185
     EDDAV:  cpu time      0.4126: real time      0.4136
       DOS:  cpu time      0.0030: real time      0.0030
    CHARGE:  cpu time      0.0313: real time      0.0314
    MIXING:  cpu time      0.0048: real time      0.0048
    --------------------------------------------
      LOOP:  cpu time      0.6710: real time      0.6726

 eigenvalue-minimisations  :   152
 total energy-change (2. order) :-0.1152557E-01  (-0.2959338E-01)
 number of electron      72.0000008 magnetization 
 augmentation part        6.8508109 magnetization 

 Broyden mixing:
  rms(total) = 0.23224E+00    rms(broyden)= 0.23159E+00
  rms(prec ) = 0.29019E+00
  weight for this iteration     100.00

 eigenvalues of (default mixing * dielectric matrix)
  average eigenvalue GAMMA=   0.7724
  2.5360  1.7630  1.6965  0.8010  0.8010  0.5111  0.3465  0.3465  0.3729  0.2890
  0.2130  0.2130  0.1516

 Free energy of the ion-electron system (eV)
  ---------------------------------------------------
  alpha Z        PSCENC =         3.99825575
  Ewald energy   TEWEN  =      3425.79271963
  -Hartree energ DENC   =     -6894.39516985
  -exchange      EXHF   =         0.00000000
  -V(xc)+E(xc)   XCENC  =        83.15848347
  PAW double counting   =      5302.28904052    -5114.83255596
  entropy T*S    EENTRO =        -0.21736533
  eigenvalues    EBANDS =     -1094.99425268
  atomic energy  EATOM  =      4244.20348233
  Solvation  Ediel_sol  =         0.00000000
  ---------------------------------------------------
  free energy    TOTEN  =       -44.99736211 eV

  energy without entropy =      -44.77999679  energy(sigma->0) =      -44.88867945


--------------------------------------------------------------------------------------------------------




--------------------------------------- Iteration      1(  19)  ---------------------------------------


    POTLOK:  cpu time      0.1012: real time      0.1015
    SETDIJ:  cpu time      0.1177: real time      0.1180
     EDDAV:  cpu time      0.3952: real time      0.3962
       DOS:  cpu time      0.0027: real time      0.0028
    CHARGE:  cpu time      0.0314: real time      0.0315
    MIXING:  cpu time      0.0049: real time      0.0049
    --------------------------------------------
      LOOP:  cpu time      0.6533: real time      0.6549

 eigenvalue-minimisations  :   144
 total energy-change (2. order) : 0.1905303E-02  (-0.1129042E-02)
 number of electron      72.0000008 magnetization 
 augmentation part        6.8794565 magnetization 

 Broyden mixing:
  rms(total) = 0.27608E+00    rms(broyden)= 0.27605E+00
  rms(prec ) = 0.34808E+00
  weight for this iteration     100.00

 eigenvalues of (default mixing * dielectric matrix)
  average eigenvalue GAMMA=   0.8083
  2.4817  2.4817  0.9942  0.9942  0.9819  0.8039  0.5134  0.3484  0.3484  0.4276
  0.3638  0.2125  0.2125  0.1519

 Free energy of the ion-electron system (eV)
  ---------------------------------------------------
  alpha Z        PSCENC =         3.99825575
  Ewald energy   TEWEN  =      3425.79271963
  -Hartree energ DENC   =     -6895.07381295
  -exchange      EXHF   =         0.00000000
  -V(xc)+E(xc)   XCENC  =        83.18077071
  PAW double counting   =      5296.95026962    -5109.57661751
  entropy T*S    EENTRO =        -0.22035112
  eigenvalues    EBANDS =     -1094.25017327
  atomic energy  EATOM  =      4244.20348233
  Solvation  Ediel_sol  =         0.00000000
  ---------------------------------------------------
  free energy    TOTEN  =       -44.99545681 eV

  energy without entropy =      -44.77510569  energy(sigma->0) =      -44.88528125


--------------------------------------------------------------------------------------------------------




--------------------------------------- Iteration      1(  20)  ---------------------------------------


    POTLOK:  cpu time      0.1015: real time      0.1017
    SETDIJ:  cpu time      0.1185: real time      0.1188
     EDDAV:  cpu time      0.4127: real time      0.4137
       DOS:  cpu time      0.0028: real time      0.0028
    CHARGE:  cpu time      0.0314: real time      0.0315
    MIXING:  cpu time      0.0052: real time      0.0052
    --------------------------------------------
      LOOP:  cpu time      0.6721: real time      0.6737

 eigenvalue-minimisations  :   152
 total energy-change (2. order) : 0.1622298E-01  (-0.1349794E-01)
 number of electron      72.0000009 magnetization 
 augmentation part        6.6759648 magnetization 

 Broyden mixing:
  rms(total) = 0.32236E-01    rms(broyden)= 0.31230E-01
  rms(prec ) = 0.36332E-01
  weight for this iteration     100.00

 eigenvalues of (default mixing * dielectric matrix)
  average eigenvalue GAMMA=   0.8559
  2.9503  2.3306  1.3505  1.3505  0.7981  0.7981  0.7680  0.3482  0.3482  0.4731
  0.3797  0.3658  0.2125  0.2125  0.1519

 Free energy of the ion-electron system (eV)
  ---------------------------------------------------
  alpha Z        PSCENC =         3.99825575
  Ewald energy   TEWEN  =      3425.79271963
  -Hartree energ DENC   =     -6896.51121971
  -exchange      EXHF   =         0.00000000
  -V(xc)+E(xc)   XCENC  =        83.21267740
  PAW double counting   =      5290.06050865    -5102.68166631
  entropy T*S    EENTRO =        -0.19739091
  eigenvalues    EBANDS =     -1092.85660067
  atomic energy  EATOM  =      4244.20348233
  Solvation  Ediel_sol  =         0.00000000
  ---------------------------------------------------
  free energy    TOTEN  =       -44.97923383 eV

  energy without entropy =      -44.78184293  energy(sigma->0) =      -44.88053838


--------------------------------------------------------------------------------------------------------




--------------------------------------- Iteration      1(  21)  ---------------------------------------


    POTLOK:  cpu time      0.0998: real time      0.1001
    SETDIJ:  cpu time      0.1191: real time      0.1194
     EDDAV:  cpu time      0.4122: real time      0.4132
       DOS:  cpu time      0.0002: real time      0.0002
    CHARGE:  cpu time      0.0309: real time      0.0310
    MIXING:  cpu time      0.0052: real time      0.0052
    --------------------------------------------
      LOOP:  cpu time      0.6675: real time      0.6691

 eigenvalue-minimisations  :   152
 total energy-change (2. order) :-0.1566158E-01  (-0.1884145E-02)
 number of electron      72.0000010 magnetization 
 augmentation part        6.6164074 magnetization 

 Broyden mixing:
  rms(total) = 0.10258E+00    rms(broyden)= 0.10244E+00
  rms(prec ) = 0.12887E+00
  weight for this iteration     100.00

 eigenvalues of (default mixing * dielectric matrix)
  average eigenvalue GAMMA=   0.8994
  3.0128  2.3318  2.3318  0.9405  0.9405  0.7974  0.7974  0.7057  0.5073  0.3482
  0.3482  0.3883  0.3632  0.2125  0.2125  0.1519

 Free energy of the ion-electron system (eV)
  ---------------------------------------------------
  alpha Z        PSCENC =         3.99825575
  Ewald energy   TEWEN  =      3425.79271963
  -Hartree energ DENC   =     -6897.91342841
  -exchange      EXHF   =         0.00000000
  -V(xc)+E(xc)   XCENC  =        83.23925365
  PAW double counting   =      5290.49210099    -5103.08718570
  entropy T*S    EENTRO =        -0.18952847
  eigenvalues    EBANDS =     -1091.53056518
  atomic energy  EATOM  =      4244.20348233
  Solvation  Ediel_sol  =         0.00000000
  ---------------------------------------------------
  free energy    TOTEN  =       -44.99489541 eV

  energy without entropy =      -44.80536694  energy(sigma->0) =      -44.90013118


--------------------------------------------------------------------------------------------------------




--------------------------------------- Iteration      1(  22)  ---------------------------------------


    POTLOK:  cpu time      0.0985: real time      0.0988
    SETDIJ:  cpu time      0.1193: real time      0.1196
     EDDAV:  cpu time      0.4405: real time      0.4415
       DOS:  cpu time      0.0002: real time      0.0002
    CHARGE:  cpu time      0.0316: real time      0.0317
    MIXING:  cpu time      0.0062: real time      0.0062
    --------------------------------------------
      LOOP:  cpu time      0.6963: real time      0.6979

 eigenvalue-minimisations  :   152
 total energy-change (2. order) : 0.2511165E-04  (-0.1591342E-02)
 number of electron      72.0000008 magnetization 
 augmentation part        6.6842596 magnetization 

 Broyden mixing:
  rms(total) = 0.23862E-01    rms(broyden)= 0.23511E-01
  rms(prec ) = 0.27369E-01
  weight for this iteration     100.00

 eigenvalues of (default mixing * dielectric matrix)
  average eigenvalue GAMMA=   0.8779
  3.2722  2.3697  2.3697  0.9468  0.9468  0.8046  0.8046  0.6779  0.5262  0.3482
  0.3482  0.3890  0.3634  0.2125  0.2125  0.1519  0.1795

 Free energy of the ion-electron system (eV)
  ---------------------------------------------------
  alpha Z        PSCENC =         3.99825575
  Ewald energy   TEWEN  =      3425.79271963
  -Hartree energ DENC   =     -6898.24924487
  -exchange      EXHF   =         0.00000000
  -V(xc)+E(xc)   XCENC  =        83.23793942
  PAW double counting   =      5290.00941949    -5102.72658845
  entropy T*S    EENTRO =        -0.19530164
  eigenvalues    EBANDS =     -1091.06555197
  atomic energy  EATOM  =      4244.20348233
  Solvation  Ediel_sol  =         0.00000000
  ---------------------------------------------------
  free energy    TOTEN  =       -44.99487030 eV

  energy without entropy =      -44.79956866  energy(sigma->0) =      -44.89721948


--------------------------------------------------------------------------------------------------------




--------------------------------------- Iteration      1(  23)  ---------------------------------------


    POTLOK:  cpu time      0.1000: real time      0.1014
    SETDIJ:  cpu time      0.1200: real time      0.1202
     EDDAV:  cpu time      0.3425: real time      0.3434
       DOS:  cpu time      0.0002: real time      0.0002
    CHARGE:  cpu time      0.0300: real time      0.0301
    MIXING:  cpu time      0.0089: real time      0.0089
    --------------------------------------------
      LOOP:  cpu time      0.6016: real time      0.6042

 eigenvalue-minimisations  :   112
 total energy-change (2. order) :-0.2008398E-02  (-0.6563316E-04)
 number of electron      72.0000008 magnetization 
 augmentation part        6.6874121 magnetization 

 Broyden mixing:
  rms(total) = 0.15046E-01    rms(broyden)= 0.14987E-01
  rms(prec ) = 0.17398E-01
  weight for this iteration     100.00

 eigenvalues of (default mixing * dielectric matrix)
  average eigenvalue GAMMA=   0.9998
  4.8015  2.2939  2.2939  1.0785  1.0785  0.8885  0.8885  0.7985  0.7985  0.5860
  0.3482  0.3482  0.4686  0.3858  0.3614  0.2125  0.2125  0.1519

 Free energy of the ion-electron system (eV)
  ---------------------------------------------------
  alpha Z        PSCENC =         3.99825575
  Ewald energy   TEWEN  =      3425.79271963
  -Hartree energ DENC   =     -6899.02690542
  -exchange      EXHF   =         0.00000000
  -V(xc)+E(xc)   XCENC  =        83.25277186
  PAW double counting   =      5289.32767190    -5102.07007922
  entropy T*S    EENTRO =        -0.19555977
  eigenvalues    EBANDS =     -1090.27923575
  atomic energy  EATOM  =      4244.20348233
  Solvation  Ediel_sol  =         0.00000000
  ---------------------------------------------------
  free energy    TOTEN  =       -44.99687870 eV

  energy without entropy =      -44.80131893  energy(sigma->0) =      -44.89909881


--------------------------------------------------------------------------------------------------------




[...]
 augmentation part        7.2209483 magnetization 

 Broyden mixing:
  rms(total) = 0.71729E-02    rms(broyden)= 0.71652E-02
  rms(prec ) = 0.85309E-02
  weight for this iteration     100.00

 eigenvalues of (default mixing * dielectric matrix)
  average eigenvalue GAMMA=   0.3615
  0.3615

 Free energy of the ion-electron system (eV)
  ---------------------------------------------------
  alpha Z        PSCENC =         3.99825575
  Ewald energy   TEWEN  =      5759.96860721
  -Hartree energ DENC   =     -9198.32969066
  -exchange      EXHF   =         0.00000000
  -V(xc)+E(xc)   XCENC  =        97.51928783
  PAW double counting   =      6407.05480848    -6228.39929995
  entropy T*S    EENTRO =        -0.00731677
  eigenvalues    EBANDS =     -1178.54287389
  atomic energy  EATOM  =      4244.20348233
  Solvation  Ediel_sol  =         0.00000000
  ---------------------------------------------------
  free energy    TOTEN  =       -92.53473967 eV

  energy without entropy =      -92.52742290  energy(sigma->0) =      -92.53108128


--------------------------------------------------------------------------------------------------------




--------------------------------------- Iteration     98(   3)  ---------------------------------------


    POTLOK:  cpu time      0.1008: real time      0.1022
    SETDIJ:  cpu time      0.1181: real time      0.1184
     EDDAV:  cpu time      0.2539: real time      0.2545
       DOS:  cpu time      0.0011: real time      0.0011
    --------------------------------------------
      LOOP:  cpu time      0.4738: real time      0.4761

 eigenvalue-minimisations  :    80
 total energy-change (2. order) : 0.9664897E-04  (-0.4118260E-04)
 number of electron      72.0000046 magnetization 
 augmentation part        7.2209483 magnetization 

 Free energy of the ion-electron system (eV)
  ---------------------------------------------------
  alpha Z        PSCENC =         3.99825575
  Ewald energy   TEWEN  =      5759.96860721
  -Hartree energ DENC   =     -9198.06755200
  -exchange      EXHF   =         0.00000000
  -V(xc)+E(xc)   XCENC  =        97.51233905
  PAW double counting   =      6406.77102580    -6228.12091336
  entropy T*S    EENTRO =        -0.00750462
  eigenvalues    EBANDS =     -1178.79238318
  atomic energy  EATOM  =      4244.20348233
  Solvation  Ediel_sol  =         0.00000000
  ---------------------------------------------------
  free energy    TOTEN  =       -92.53464302 eV

  energy without entropy =      -92.52713840  energy(sigma->0) =      -92.53089071


--------------------------------------------------------------------------------------------------------




 average (electrostatic) potential at core
  the test charge radii are     1.0397  1.0406  0.7672
  (the norm of the test charge is              1.0000)
       1 -85.3082       2 -85.0957       3 -84.2052       4 -84.5337       5 -84.4336
       6 -84.1742       7 -36.6906       8 -35.7454       9 -36.2517      10 -36.5803
      11 -36.1487      12 -36.5006      13 -36.2823      14 -36.6859      15 -36.3176
      16 -36.2256      17 -36.1864      18 -37.0605
 
 
 
 E-fermi :  -4.1579     XC(G=0):  -0.6256     alpha+bet : -0.3659

 Fermi energy:        -4.1579067787

 k-point     1 :       0.0000    0.0000    0.0000
  band No.  band energies     occupation 
      1     -61.2791      2.00000
      2     -61.0817      2.00000
      3     -37.9388      2.00000
      4     -37.6354      2.00000
      5     -37.5786      2.00000
      6     -37.4504      2.00000
      7     -37.2892      2.00000
      8     -37.2708      2.00000
      9     -17.5694      2.00000
     10     -15.6269      2.00000
     11     -14.6424      2.00000
     12     -14.3566      2.00000
     13     -12.7876      2.00000
     14     -11.6939      2.00000
     15     -10.9734      2.00000
     16     -10.5554      2.00000
     17      -9.5847      2.00000
     18      -9.0949      2.00000
     19      -8.9733      2.00000
     20      -8.6774      2.00000
     21      -8.3980      2.00000
     22      -7.5610      2.00000
     23      -7.3124      2.00000
     24      -7.1780      2.00000
     25      -6.7971      2.00000
     26      -6.6721      2.00000
     27      -6.4871      2.00000
     28      -6.0802      2.00000
     29      -5.8529      2.00000
     30      -5.6469      2.00000
     31      -5.4256      2.00000
     32      -5.1417      2.00000
     33      -4.9527      2.00000
     34      -4.8114      2.00000
     35      -4.7002      2.00000
     36      -4.3225      1.98010
     37      -3.9933      0.01990
     38      -3.8129      0.00000
     39      -3.4905      0.00000
     40      -3.2264      0.00000
     41      -3.0907      0.00000
     42      -2.9578      0.00000
     43      -2.7491      0.00000
     44      -2.7089      0.00000
     45      -2.4745      0.00000
     46      -2.3293      0.00000
     47      -2.0630      0.00000
     48      -2.0594      0.00000


--------------------------------------------------------------------------------------------------------


 soft charge-density along one line, spin component           1
         0         1         2         3         4         5         6         7         8         9
 total charge-density along one line
 
 pseudopotential strength for first ion, spin component:           1
 -2.089 -26.732  -0.018   0.036   0.005   0.007  -0.019  -0.009
-26.732  13.487   0.018  -0.023   0.010  -0.002   0.004   0.001
 -0.018   0.018 -30.202   0.145   0.144  12.485  -0.097  -0.096
  0.036  -0.023   0.145 -30.370   0.008  -0.097  12.592  -0.005
  0.005   0.010   0.144   0.008 -30.275  -0.096  -0.005  12.531
  0.007  -0.002  12.485  -0.097  -0.096   4.149   0.039   0.045
 -0.019   0.004  -0.097  12.592  -0.005   0.039   4.101   0.003
 -0.009   0.001  -0.096  -0.005  12.531   0.045   0.003   4.128
  0.108   0.017   0.012   0.007  -0.006  -0.004  -0.003   0.004
  0.104   0.028   0.012   0.002   0.007  -0.009   0.002  -0.003
 -0.059  -0.009   0.007   0.016  -0.001  -0.003  -0.013   0.001
  0.006   0.002   0.007   0.012   0.014  -0.003  -0.007  -0.009
 -0.029  -0.003   0.004   0.001   0.001  -0.004  -0.000  -0.004
  0.134   0.020   0.014   0.008  -0.008  -0.005  -0.003   0.006
  0.129   0.032   0.016   0.001   0.008  -0.013   0.004  -0.003
 -0.072  -0.010   0.008   0.021  -0.001  -0.005  -0.017   0.001
  0.007   0.002   0.008   0.014   0.018  -0.003  -0.008  -0.013
 -0.036  -0.003   0.006   0.001   0.002  -0.006  -0.000  -0.004
 total augmentation occupancy for first ion, spin component:           1
  1.998  -0.029  -0.003   0.004  -0.001  -0.007   0.008  -0.002   0.056   0.033  -0.013   0.006  -0.014  -0.055  -0.036   0.015
 -0.029   1.217  -0.024   0.027  -0.009   0.100  -0.143   0.057   0.437   0.404   0.129   0.151  -0.137  -0.271  -0.145  -0.076
 -0.003  -0.024   1.986  -0.001   0.000  -0.030  -0.001   0.003  -0.009   0.037  -0.002  -0.015   0.018   0.006  -0.025   0.005
  0.004   0.027  -0.001   1.986  -0.000  -0.001  -0.028   0.000  -0.018  -0.044   0.031  -0.025  -0.002   0.015   0.032  -0.020
 -0.001  -0.009   0.000  -0.000   1.985   0.003   0.000  -0.031  -0.020  -0.015  -0.011   0.031   0.005   0.012   0.013   0.011
 -0.007   0.100  -0.030  -0.001   0.003   0.113   0.035   0.022  -0.060  -0.268  -0.231  -0.081  -0.232   0.001   0.145   0.127
  0.008  -0.143  -0.001  -0.028   0.000   0.035   0.105   0.014  -0.111   0.092  -0.258  -0.013  -0.037   0.034  -0.059   0.151
 -0.002   0.057   0.003   0.000  -0.031   0.022   0.014   0.087   0.221  -0.127  -0.118  -0.286   0.221  -0.120   0.060   0.073
  0.056   0.437  -0.009  -0.018  -0.020  -0.060  -0.111   0.221   2.436   0.154  -0.487  -0.003   0.641  -1.070  -0.065   0.212
  0.033   0.404   0.037  -0.044  -0.015  -0.268   0.092  -0.127   0.154   3.270   0.266   0.917  -0.417  -0.080  -1.683  -0.171
 -0.013   0.129  -0.002   0.031  -0.011  -0.231  -0.258  -0.118  -0.487   0.266   2.330   0.567   0.394   0.210  -0.164  -1.215
  0.006   0.151  -0.015  -0.025   0.031  -0.081  -0.013  -0.286  -0.003   0.917   0.567   2.516  -0.218   0.082  -0.495  -0.363
 -0.014  -0.137   0.018  -0.002   0.005  -0.232  -0.037   0.221   0.641  -0.417   0.394  -0.218   2.742  -0.316   0.122  -0.231
 -0.055  -0.271   0.006   0.015   0.012   0.001   0.034  -0.120  -1.070  -0.080   0.210   0.082  -0.316   0.546   0.032  -0.109
 -0.036  -0.145  -0.025   0.032   0.013   0.145  -0.059   0.060  -0.065  -1.683  -0.164  -0.495   0.122   0.032   0.908   0.097
  0.015  -0.076   0.005  -0.020   0.011   0.127   0.151   0.073   0.212  -0.171  -1.215  -0.363  -0.231  -0.109   0.097   0.679
 -0.005  -0.107   0.013   0.018  -0.019   0.054   0.021   0.148   0.073  -0.494  -0.355  -1.241   0.116  -0.077   0.272   0.208
  0.014   0.140  -0.010   0.002  -0.007   0.143   0.021  -0.103  -0.317   0.133  -0.248   0.123  -1.401   0.161  -0.022   0.145


------------------------ aborting loop because EDIFF is reached ----------------------------------------





 total charge

# of ion       s       p       d       tot
------------------------------------------
    1        2.181   6.108   2.049  10.338
    2        2.172   6.104   2.110  10.386
    3        0.518   0.250   0.000   0.769
    4        0.465   0.330   0.000   0.795
    5        0.470   0.306   0.000   0.777
    6        0.494   0.288   0.000   0.781
    7        0.745   1.204   0.000   1.949
    8        0.730   1.259   0.000   1.989
    9        0.729   1.186   0.000   1.915
   10        0.787   1.103   0.000   1.890
   11        0.777   1.080   0.000   1.857
   12        0.728   1.183   0.000   1.911
   13        0.730   1.256   0.000   1.986
   14        0.761   1.172   0.000   1.933
   15        0.708   1.359   0.000   2.067
   16        0.751   1.248   0.000   2.000
   17        0.752   1.252   0.000   2.004
   18        0.706   1.281   0.000   1.987
--------------------------------------------------
tot         15.204  27.971   4.159  47.335
 
    CHARGE:  cpu time      0.0263: real time      0.0264
    FORLOC:  cpu time      0.0158: real time      0.0159
    FORNL :  cpu time      0.0841: real time      0.0843
    STRESS:  cpu time      0.2550: real time      0.2556
    FORCOR:  cpu time      0.1149: real time      0.1152
    FORHAR:  cpu time      0.0362: real time      0.0363
    MIXING:  cpu time      0.0034: real time      0.0034
    OFIELD:  cpu time      0.0000: real time      0.0000

  FORCE on cell =-STRESS in cart. coord.  units (eV):
  Direction    XX          YY          ZZ          XY          YZ          ZX
  --------------------------------------------------------------------------------------
  Alpha Z     3.99826     3.99826     3.99826
  Ewald    1502.15583  2401.42068  1856.38977  1255.91667   364.92991   176.76033
  Hartree  2744.94304  3458.68812  2994.50031   968.49048   268.54304   116.54091
  E(xc)    -271.77773  -271.15854  -271.59056     0.66422     0.49557     0.25859
  Local   -4896.09223 -6514.88497 -5498.69846 -2224.91185  -634.39873  -294.32585
  n-local    22.41328    16.76934    13.91269    -2.55460    -4.77129    -0.26633
  augment   123.78320   127.11837   123.77453     2.53027     3.22047     0.80539
  Kinetic   769.57246   776.94723   776.76147    -0.10512     2.13247     0.43859
  Fock        0.00000     0.00000     0.00000     0.00000     0.00000     0.00000
  -------------------------------------------------------------------------------------
  Total      -1.00390    -1.10153    -0.95200     0.03006     0.15144     0.21163
  in kB      -0.20467    -0.22457    -0.19409     0.00613     0.03087     0.04315
  external pressure =       -0.21 kB  Pullay stress =        0.00 kB


 VOLUME and BASIS-vectors are now :
 -----------------------------------------------------------------------------
  energy-cutoff  :      318.61
  volume of cell :     7858.69
      direct lattice vectors                 reciprocal lattice vectors
    20.738775471  0.000000000  0.000000000     0.048218855  0.000000000  0.000000000
     0.000000000 20.180822440  0.000000000     0.000000000  0.049551994  0.000000000
     0.000000000  0.000000000 18.777092164     0.000000000  0.000000000  0.053256382

  length of vectors
    20.738775471 20.180822440 18.777092164     0.048218855  0.049551994  0.053256382


 FORCES acting on ions
    electron-ion (+dipol)            ewald-force                    non-local-force                 convergence-correction
 -----------------------------------------------------------------------------------------------
   0.209E+03 0.505E+03 -.374E+03   -.206E+03 -.500E+03 0.368E+03   -.254E+01 -.471E+01 0.596E+01   0.171E-02 0.255E-02 0.200E-01
   -.299E+03 -.150E+03 0.634E+03   0.296E+03 0.148E+03 -.625E+03   0.299E+01 0.203E+01 -.851E+01   0.608E-03 0.182E-01 -.109E-02
   -.890E+02 -.127E+03 -.498E+02   0.907E+02 0.127E+03 0.494E+02   -.164E+01 -.249E+00 0.437E+00   0.481E-03 -.529E-03 -.392E-03
   -.364E+02 0.119E+03 0.169E+03   0.379E+02 -.114E+03 -.167E+03   -.154E+01 -.443E+01 -.277E+01   0.218E-02 0.228E-02 -.318E-02
   -.487E+02 0.304E+02 -.186E+03   0.492E+02 -.315E+02 0.185E+03   -.407E+00 0.117E+01 0.117E+01   0.451E-02 0.455E-02 0.283E-02
   -.132E+03 -.600E+00 -.106E+03   0.130E+03 -.844E+00 0.105E+03   0.257E+01 0.143E+01 0.872E+00   -.938E-03 0.186E-02 -.640E-03
   0.144E+02 -.182E+03 -.113E+03   -.151E+02 0.183E+03 0.115E+03   0.669E+00 -.128E+01 -.225E+01   0.716E-02 0.540E-02 0.223E-02
   -.198E+03 0.901E+02 -.551E+02   0.198E+03 -.908E+02 0.546E+02   -.252E+00 0.752E+00 0.548E+00   0.466E-02 0.844E-02 0.175E-02
   -.115E+03 0.139E+03 -.562E+01   0.116E+03 -.140E+03 0.670E+01   -.452E+00 0.919E+00 -.108E+01   0.569E-02 0.550E-02 -.250E-02
   0.165E+03 0.557E+02 0.124E+03   -.163E+03 -.566E+02 -.123E+03   -.124E+01 0.881E+00 -.889E+00   0.449E-02 -.749E-02 0.238E-02
   0.701E+02 0.189E+03 0.768E+02   -.704E+02 -.191E+03 -.741E+02   0.455E+00 0.173E+01 -.276E+01   -.704E-02 0.238E-02 -.117E-01
   0.156E+03 -.394E+02 -.116E+03   -.157E+03 0.383E+02 0.119E+03   0.134E+01 0.111E+01 -.297E+01   0.285E-02 0.114E-01 0.776E-04
   -.289E+02 -.224E+03 0.511E+02   0.297E+02 0.224E+03 -.544E+02   -.778E+00 -.676E-01 0.329E+01   0.627E-02 0.230E-02 -.383E-02
   0.151E+03 -.425E+02 0.108E+03   -.152E+03 0.433E+02 -.109E+03   0.910E+00 -.792E+00 0.184E+01   0.219E-02 0.237E-02 -.135E-02
   0.104E+03 -.381E+02 0.740E+02   -.105E+03 0.390E+02 -.761E+02   0.200E+00 -.917E+00 0.201E+01   0.252E-02 0.126E-01 -.283E-02
   -.153E+03 -.863E+02 -.823E+02   0.154E+03 0.860E+02 0.822E+02   -.157E+01 0.385E+00 0.911E-01   0.482E-02 -.826E-03 -.127E-03
   0.111E+03 -.102E+03 -.162E+03   -.112E+03 0.102E+03 0.163E+03   0.750E+00 -.124E-01 -.917E+00   -.227E-02 -.516E-02 0.363E-03
   0.120E+03 -.134E+03 0.176E+02   -.119E+03 0.134E+03 -.191E+02   -.535E+00 0.292E+00 0.153E+01   -.174E-02 -.652E-02 -.537E-02
 -----------------------------------------------------------------------------------------------
   0.103E+01 0.173E+01 0.440E+01   -.995E-13 0.000E+00 0.888E-13   -.106E+01 -.176E+01 -.439E+01   0.382E-01 0.593E-01 -.335E-02
 
 
 POSITION                                       TOTAL-FORCE (eV/Angst)
 -----------------------------------------------------------------------------------
      9.60760      7.70463     10.30141        -0.012093     -0.007333     -0.011366
     11.81108     10.40643      8.14530        -0.010735      0.009533     -0.010007
     13.09672     13.09089     10.76362         0.008976      0.001004      0.050635
     10.61009      7.94359      7.66236        -0.017766     -0.001042      0.004411
     11.35259      9.39559     11.68965         0.013435      0.041234      0.002054
     13.80306     10.29374     11.68238        -0.023003     -0.016696      0.022814
     10.85036     12.28641     10.82556        -0.002109     -0.007792      0.003779
     12.77219      9.48584      9.92017         0.009829     -0.000710     -0.007084
     11.44303      8.60657      9.53312         0.020837     -0.005426      0.003601
      7.86121      7.65612      7.74682        -0.058880      0.032661     -0.014364
      8.83645      6.79275      8.56956         0.060661      0.000707      0.011049
      9.33804      9.91777     10.69673         0.000030     -0.023519      0.023435
     11.56938     12.20659      9.34510        -0.019253     -0.028197      0.001009
      8.67863      8.81452      8.35040        -0.014086     -0.040817     -0.018160
      9.92766      9.63979      9.05051        -0.019764     -0.016853     -0.015454
     12.57388     11.07683     10.08806         0.035662      0.031668     -0.028212
      9.73771     11.30271     11.31507         0.037050      0.054277     -0.025242
     10.23671     11.18486      9.65945        -0.008791     -0.022700      0.007102
 -----------------------------------------------------------------------------------
    total drift:                                0.008684      0.024962      0.012558


--------------------------------------------------------------------------------------------------------



  FREE ENERGIE OF THE ION-ELECTRON SYSTEM (eV)
  ---------------------------------------------------
  free  energy   TOTEN  =       -92.53464302 eV

  energy  without entropy=      -92.52713840  energy(sigma->0) =      -92.53089071
 
 d Force = 0.1524636E-03[ 0.323E-04, 0.273E-03]  d Energy = 0.1546566E-03-0.219E-05
 d Force =-0.5749152E-01[-0.578E-01,-0.572E-01]  d Ewald  =-0.5749168E-01 0.160E-06


--------------------------------------------------------------------------------------------------------


    POTLOK:  cpu time      0.2192: real time      0.2197


--------------------------------------------------------------------------------------------------------




--------------------------------------------------------------------------------------------------------


  
 reached required accuracy - stopping structural energy minimisation
     LOOP+:  cpu time      2.4982: real time      2.5253
    4ORBIT:  cpu time      0.0000: real time      0.0000



 total charge

# of ion       s       p       d       tot
------------------------------------------
    1        2.181   6.108   2.049  10.338
    2        2.172   6.104   2.110  10.386
    3        0.518   0.250   0.000   0.769
    4        0.465   0.330   0.000   0.795
    5        0.470   0.306   0.000   0.777
    6        0.494   0.288   0.000   0.781
    7        0.745   1.204   0.000   1.949
    8        0.730   1.259   0.000   1.989
    9        0.729   1.186   0.000   1.915
   10        0.787   1.103   0.000   1.890
   11        0.777   1.080   0.000   1.857
   12        0.728   1.183   0.000   1.911
   13        0.730   1.256   0.000   1.986
   14        0.761   1.172   0.000   1.933
   15        0.708   1.359   0.000   2.067
   16        0.751   1.248   0.000   2.000
   17        0.752   1.252   0.000   2.004
   18        0.706   1.281   0.000   1.987
--------------------------------------------------
tot         15.204  27.971   4.159  47.335
 

 total amount of memory used by VASP MPI-rank0    57423. kBytes
=======================================================================

   base      :      30000. kBytes
   nonlr-proj:        602. kBytes
   fftplans  :       8954. kBytes
   grid      :      15378. kBytes
   one-center:         46. kBytes
   wavefun   :       2443. kBytes
 
  
  
 General timing and accounting informations for this job:
 ========================================================
  
                  Total CPU time used (sec):      679.825
                            User time (sec):      668.583
                          System time (sec):       11.241
                         Elapsed time (sec):      685.045
  
                   Maximum memory used (kb):      294492.
                   Average memory used (kb):          N/A
  
                          Minor page faults:      3656953
                          Major page faults:            0
                 Voluntary context switches:         4819
