unknown system                          
           1
    20.738775    0.000000    0.000000
     0.000000   20.180822    0.000000
     0.000000    0.000000   18.777092
   Ti   Al   B 
     2     4    12
Direct configuration=     1
   0.41460728  0.38979986  0.53167818
   0.59536415  0.50494335  0.34197942
   0.68256677  0.68169805  0.59851259
   0.57188248  0.36401873  0.42351565
   0.57452498  0.43555834  0.66781401
   0.75193329  0.56641147  0.62984346
   0.50475052  0.58590787  0.59775746
   0.57993951  0.43915936  0.56783221
   0.52174102  0.38665321  0.51054446
   0.31969163  0.39096706  0.38849832
   0.41789142  0.32957574  0.42496689
   0.46407593  0.46446274  0.64419914
   0.52579231  0.66126472  0.38600187
   0.40880230  0.42738876  0.46863041
   0.52332027  0.49347537  0.43804254
   0.58198332  0.55039649  0.55748559
   0.40163226  0.57375625  0.61395781
   0.51908835  0.56518557  0.54699339
Direct configuration=     2
   0.41897006  0.36293379  0.57902487
   0.59147116  0.50475467  0.34744554
   0.68141897  0.68033897  0.59804159
   0.57296040  0.36612218  0.41978103
   0.57271319  0.43615328  0.67511639
   0.75067541  0.56611065  0.62944388
   0.47639549  0.61843852  0.68842436
   0.57652073  0.43960870  0.55516658
   0.52313242  0.39221025  0.51592627
   0.32452031  0.38987050  0.39161058
   0.41602703  0.33627929  0.42701480
   0.46537080  0.46749009  0.64128773
   0.52674664  0.65848650  0.38607341
   0.40525292  0.45119960  0.41808716
   0.52555660  0.49320594  0.43935466
   0.59848628  0.54233561  0.56343393
   0.40796904  0.57201773  0.61406179
   0.52540036  0.53306667  0.44895881
Direct configuration=     3
   0.41625140  0.37967540  0.54952076
   0.59389708  0.50487225  0.34403933
   0.68213422  0.68118588  0.59833509
   0.57228869  0.36481141  0.42210826
   0.57384221  0.43578254  0.67056591
   0.75145926  0.56629810  0.62969288
   0.49406494  0.59816703  0.63192524
   0.57865115  0.43932869  0.56305917
   0.52226537  0.38874738  0.51257259
   0.32151132  0.39055382  0.38967117
   0.41718883  0.33210197  0.42573865
   0.46456390  0.46560360  0.64310198
   0.52615195  0.66021775  0.38602883
   0.40746472  0.43636186  0.44958321
   0.52416303  0.49337383  0.43853701
   0.58820245  0.54735875  0.55972722
   0.40402027  0.57310109  0.61399699
   0.52146703  0.55308158  0.51004910
Direct configuration=     4
   0.41623890  0.37975233  0.54938519
   0.59390823  0.50487279  0.34402368
   0.68213751  0.68118977  0.59833644
   0.57228561  0.36480539  0.42211895
   0.57384740  0.43578084  0.67054500
   0.75146286  0.56629897  0.62969402
   0.49414613  0.59807388  0.63166562
   0.57866093  0.43932740  0.56309544
   0.52226139  0.38873147  0.51255718
   0.32149749  0.39055696  0.38966226
   0.41719416  0.33208277  0.42573278
   0.46456020  0.46559493  0.64311031
   0.52614921  0.66022571  0.38602863
   0.40747488  0.43629368  0.44972794
   0.52415663  0.49337461  0.43853325
   0.58815520  0.54738183  0.55971018
   0.40400213  0.57310607  0.61399669
   0.52144895  0.55317355  0.51032982
Direct configuration=     5
   0.41605076  0.38091091  0.54734339
   0.59407611  0.50488093  0.34378795
   0.68218701  0.68124838  0.59835675
   0.57223912  0.36471468  0.42228000
   0.57392553  0.43575518  0.67023009
   0.75151711  0.56631194  0.62971125
   0.49536893  0.59667102  0.62775567
   0.57880837  0.43930803  0.56364164
   0.52220138  0.38849182  0.51232509
   0.32128926  0.39060425  0.38952805
   0.41727456  0.33179369  0.42564447
   0.46450436  0.46546437  0.64323587
   0.52610806  0.66034552  0.38602554
   0.40762794  0.43526685  0.45190758
   0.52406019  0.49338622  0.43847667
   0.58744352  0.54772945  0.55945367
   0.40372886  0.57318104  0.61399221
   0.52117675  0.55455866  0.51455750
Direct configuration=     6
   0.41926661  0.38244360  0.54628869
   0.59082877  0.50475650  0.34816753
   0.68102437  0.67969408  0.59802744
   0.57195027  0.36672433  0.42006731
   0.57232266  0.43721800  0.67207694
   0.74999621  0.56609310  0.62927546
   0.49224385  0.59302164  0.62535736
   0.57549029  0.44090232  0.55757451
   0.52170419  0.39222166  0.51602994
   0.32657074  0.39071131  0.39241582
   0.41567282  0.33776652  0.42790141
   0.46495492  0.46726094  0.64000155
   0.52682618  0.65782292  0.38634936
   0.40738422  0.43039769  0.44923520
   0.52437766  0.49506054  0.44091979
   0.58742316  0.54556884  0.56193159
   0.41026066  0.57218821  0.61470039
   0.52129024  0.55077074  0.51193311
Direct configuration=     7
   0.42566511  0.38549318  0.54419017
   0.58436759  0.50450894  0.35688148
   0.67871108  0.67660150  0.59737221
   0.57137554  0.37072288  0.41566477
   0.56913347  0.44012853  0.67575157
   0.74697010  0.56565768  0.62840838
   0.48602595  0.58576053  0.62058549
   0.56888836  0.44407446  0.54550286
   0.52071493  0.39964285  0.52340142
   0.33707919  0.39092433  0.39816157
   0.41248587  0.34965055  0.43239200
   0.46585141  0.47083554  0.63356628
   0.52825501  0.65280376  0.38699364
   0.40689928  0.42070960  0.44391801
   0.52500932  0.49839190  0.44578082
   0.58738266  0.54126991  0.56686187
   0.42325687  0.57021280  0.61610945
   0.52151605  0.54323400  0.50671140
Direct configuration=     8
   0.42252940  0.38399868  0.54521859
   0.58753401  0.50463026  0.35261104
   0.67984475  0.67811708  0.59769332
   0.57165720  0.36876331  0.41782232
   0.57069640  0.43870217  0.67395074
   0.74845310  0.56587106  0.62883331
   0.48907316  0.58931898  0.62292404
   0.57212376  0.44251989  0.55141880
   0.52119973  0.39600596  0.51978889
   0.33192932  0.39081994  0.39534576
   0.41404770  0.34382655  0.43019130
   0.46541207  0.46908374  0.63672001
   0.52755478  0.65526350  0.38667790
   0.40713693  0.42545744  0.44652380
   0.52469976  0.49675931  0.44339858
   0.58740251  0.54337668  0.56444569
   0.41688783  0.57118089  0.61541891
   0.52140539  0.54692753  0.50927040
Direct configuration=     9
   0.42348812  0.38445561  0.54490416
   0.58656590  0.50459317  0.35391669
   0.67949814  0.67765370  0.59759514
   0.57157108  0.36936244  0.41716266
   0.57021854  0.43913827  0.67450133
   0.74799968  0.56580582  0.62870339
   0.48814150  0.58823101  0.62220904
   0.57113456  0.44299519  0.54961005
   0.52105151  0.39711791  0.52089339
   0.33350386  0.39085185  0.39620667
   0.41357018  0.34560720  0.43086415
   0.46554640  0.46961934  0.63575578
   0.52776887  0.65451145  0.38677443
   0.40706427  0.42400582  0.44572710
   0.52479441  0.49725846  0.44412693
   0.58739644  0.54273255  0.56518442
   0.41883511  0.57088490  0.61563004
   0.52143923  0.54579826  0.50848801
Direct configuration=    10
   0.42525824  0.38546202  0.54492656
   0.58420473  0.50493386  0.35721094
   0.67838791  0.67628948  0.59727387
   0.57070802  0.37121821  0.41631286
   0.56888785  0.44047233  0.67478148
   0.74661822  0.56550225  0.62832187
   0.49039193  0.58530937  0.61975220
   0.57070168  0.44778063  0.54726012
   0.52001661  0.39772168  0.52152952
   0.33878917  0.39074476  0.39914410
   0.41163868  0.34957369  0.43181293
   0.46533564  0.47216272  0.63293442
   0.52846798  0.65218962  0.38693729
   0.40587077  0.42115206  0.44300767
   0.52510071  0.49668422  0.44447610
   0.58648384  0.54094797  0.56634054
   0.42047330  0.56810540  0.61596223
   0.52225254  0.54437269  0.51026868
Direct configuration=    11
   0.42727589  0.38660916  0.54495210
   0.58151336  0.50532219  0.36096585
   0.67712242  0.67473449  0.59690767
   0.56972427  0.37333349  0.41534423
   0.56737106  0.44199295  0.67510080
   0.74504357  0.56515622  0.62788700
   0.49295707  0.58197916  0.61695179
   0.57020826  0.45323527  0.54458158
   0.51883700  0.39840989  0.52225461
   0.34481360  0.39062269  0.40249231
   0.40943708  0.35409487  0.43289440
   0.46509540  0.47506178  0.62971852
   0.52926486  0.64954310  0.38712293
   0.40451037  0.41789923  0.43990795
   0.52544984  0.49602967  0.44487409
   0.58544361  0.53891383  0.56765833
   0.42234058  0.56493721  0.61634087
   0.52317958  0.54274776  0.51229836
Direct configuration=    12
   0.42786104  0.38705782  0.54511104
   0.58060132  0.50556709  0.36225522
   0.67660573  0.67414100  0.59675496
   0.56929270  0.37416634  0.41506640
   0.56677043  0.44259735  0.67511086
   0.74442809  0.56499316  0.62772121
   0.49427638  0.58058939  0.61573642
   0.57000247  0.45543560  0.54361339
   0.51872296  0.39871451  0.52243560
   0.34696435  0.39047233  0.40366662
   0.40864195  0.35424658  0.43305523
   0.46488721  0.47634154  0.62848306
   0.52958865  0.64848046  0.38718425
   0.40397427  0.41830628  0.43896360
   0.52550360  0.49561154  0.44509163
   0.58504618  0.53817610  0.56820951
   0.42291954  0.56350468  0.61651201
   0.52350097  0.54222119  0.51328238
Direct configuration=    13
   0.42911835  0.38802184  0.54545256
   0.57864163  0.50609329  0.36502565
   0.67549551  0.67286578  0.59642682
   0.56836540  0.37595587  0.41446942
   0.56547985  0.44389602  0.67513247
   0.74310561  0.56464278  0.62736498
   0.49711116  0.57760322  0.61312497
   0.56956029  0.46016340  0.54153304
   0.51847792  0.39936904  0.52282450
   0.35158561  0.39014925  0.40618985
   0.40693346  0.35457255  0.43340080
   0.46443987  0.47909134  0.62582846
   0.53028436  0.64619719  0.38731602
   0.40282237  0.41918092  0.43693447
   0.52561913  0.49471309  0.44555903
   0.58419224  0.53659097  0.56939384
   0.42416352  0.56042664  0.61687975
   0.52419152  0.54108975  0.51539674
Direct configuration=    14
   0.42919533  0.38840069  0.54570162
   0.57823014  0.50647861  0.36561176
   0.67504798  0.67244075  0.59628634
   0.56796136  0.37660908  0.41439910
   0.56499093  0.44438759  0.67496363
   0.74263380  0.56445688  0.62724574
   0.49831771  0.57631490  0.61198729
   0.56928818  0.46162628  0.54074821
   0.51905765  0.39980331  0.52284306
   0.35171375  0.38967371  0.40620235
   0.40679028  0.35258449  0.43354978
   0.46411577  0.48026460  0.62492992
   0.53055938  0.64530854  0.38735365
   0.40329871  0.42188631  0.43699293
   0.52540899  0.49417307  0.44610780
   0.58401333  0.53630568  0.57010998
   0.42470689  0.55913951  0.61703335
   0.52425764  0.54076895  0.51618690
Direct configuration=    15
   0.42938028  0.38931089  0.54629999
   0.57724153  0.50740432  0.36701989
   0.67397278  0.67141962  0.59594883
   0.56699068  0.37817839  0.41423014
   0.56381630  0.44556856  0.67455799
   0.74150028  0.56401028  0.62695925
   0.50121642  0.57321971  0.60925401
   0.56863443  0.46514082  0.53886267
   0.52045045  0.40084665  0.52288765
   0.35202159  0.38853123  0.40623238
   0.40644630  0.34780821  0.43390770
   0.46333711  0.48308333  0.62277119
   0.53122012  0.64317359  0.38744404
   0.40444310  0.42838599  0.43713339
   0.52490412  0.49287565  0.44742619
   0.58358351  0.53562025  0.57183050
   0.42601230  0.55604720  0.61740235
   0.52441650  0.53999825  0.51808523
Direct configuration=    16
   0.42975018  0.39113128  0.54749672
   0.57526430  0.50925575  0.36983616
   0.67182238  0.66937736  0.59527382
   0.56504932  0.38131702  0.41389223
   0.56146705  0.44793051  0.67374672
   0.73923323  0.56311706  0.62638627
   0.50701384  0.56702935  0.60378746
   0.56732694  0.47216989  0.53509159
   0.52323605  0.40293331  0.52297682
   0.35263727  0.38624627  0.40629244
   0.40575834  0.33825564  0.43462354
   0.46177980  0.48872080  0.61845373
   0.53254160  0.63890367  0.38762484
   0.40673188  0.44138534  0.43741429
   0.52389439  0.49028083  0.45006298
   0.58272386  0.53424941  0.57527153
   0.42862314  0.54986259  0.61814036
   0.52473423  0.53845685  0.52188190
Direct configuration=    17
   0.42958120  0.39029966  0.54695001
   0.57616756  0.50840996  0.36854959
   0.67280475  0.67031033  0.59558219
   0.56593620  0.37988319  0.41404660
   0.56254026  0.44685149  0.67411734
   0.74026889  0.56352511  0.62664802
   0.50436539  0.56985731  0.60628476
   0.56792424  0.46895878  0.53681435
   0.52196350  0.40198005  0.52293608
   0.35235601  0.38729012  0.40626500
   0.40607262  0.34261957  0.43429652
   0.46249123  0.48614542  0.62042609
   0.53193791  0.64085431  0.38754225
   0.40568629  0.43544681  0.43728596
   0.52435567  0.49146623  0.44885841
   0.58311658  0.53487566  0.57369956
   0.42743043  0.55268793  0.61780321
   0.52458908  0.53916101  0.52014746
Direct configuration=    18
   0.42903325  0.39063096  0.54654001
   0.57636684  0.50914659  0.36819333
   0.67241805  0.67010539  0.59543761
   0.56555036  0.38029713  0.41422193
   0.56216356  0.44724612  0.67363031
   0.73998187  0.56328490  0.62659484
   0.50477489  0.56879989  0.60559611
   0.56777221  0.46854612  0.53583370
   0.52308856  0.40260778  0.52271306
   0.35248586  0.38743480  0.40626812
   0.40623625  0.34227310  0.43481349
   0.46258667  0.48590838  0.62009077
   0.53217471  0.64009622  0.38756945
   0.40584410  0.43573835  0.43747558
   0.52356015  0.49059373  0.45010122
   0.58346031  0.53579853  0.57531663
   0.42805271  0.55293623  0.61773588
   0.52403749  0.53917875  0.52012134
Direct configuration=    19
   0.42738943  0.39162483  0.54531000
   0.57696466  0.51135648  0.36712453
   0.67125795  0.66949057  0.59500387
   0.56439287  0.38153893  0.41474793
   0.56103346  0.44842999  0.67216924
   0.73912078  0.56256428  0.62643531
   0.50600338  0.56562763  0.60353016
   0.56731610  0.46730815  0.53289175
   0.52646374  0.40449095  0.52204399
   0.35287540  0.38786885  0.40627749
   0.40672712  0.34123369  0.43636440
   0.46287300  0.48519725  0.61908481
   0.53288510  0.63782194  0.38765107
   0.40631752  0.43661296  0.43804443
   0.52117357  0.48797622  0.45382966
   0.58449149  0.53856713  0.58016787
   0.42991956  0.55368113  0.61753388
   0.52238270  0.53923197  0.52004299
Direct configuration=    20
   0.42659883  0.39210283  0.54471844
   0.57725218  0.51241932  0.36661050
   0.67070000  0.66919487  0.59479526
   0.56383617  0.38213617  0.41500091
   0.56048994  0.44899938  0.67146655
   0.73870665  0.56221769  0.62635858
   0.50659422  0.56410194  0.60253655
   0.56709674  0.46671275  0.53147684
   0.52808702  0.40539666  0.52172220
   0.35306274  0.38807760  0.40628199
   0.40696320  0.34073379  0.43711031
   0.46301071  0.48485524  0.61860100
   0.53322677  0.63672813  0.38769032
   0.40654521  0.43703360  0.43831801
   0.52002576  0.48671734  0.45562285
   0.58498744  0.53989869  0.58250106
   0.43081742  0.55403939  0.61743673
   0.52158683  0.53925757  0.52000531
Direct configuration=    21
   0.42644785  0.39287780  0.54300869
   0.57698917  0.51385133  0.36700100
   0.66984654  0.66876590  0.59447516
   0.56310748  0.38291323  0.41520764
   0.55976370  0.44983760  0.67024858
   0.73808848  0.56167817  0.62625999
   0.50703329  0.56297660  0.60234045
   0.56848698  0.46861975  0.53111698
   0.52834422  0.40455613  0.52125911
   0.35412773  0.38844257  0.40670316
   0.40682185  0.34133830  0.43822236
   0.46317735  0.48369166  0.61821606
   0.53375362  0.63503477  0.38770104
   0.40663483  0.43634875  0.43863256
   0.51864340  0.48483832  0.45660126
   0.58509556  0.54059998  0.58398679
   0.43193391  0.55494840  0.61721828
   0.52129185  0.53930367  0.52005428
Direct configuration=    22
   0.42599492  0.39520271  0.53787946
   0.57620016  0.51814736  0.36817252
   0.66728617  0.66747901  0.59351485
   0.56092143  0.38524441  0.41582783
   0.55758499  0.45235227  0.66659467
   0.73623398  0.56005961  0.62596421
   0.50835049  0.55960059  0.60175214
   0.57265771  0.47434074  0.53003741
   0.52911582  0.40203454  0.51986985
   0.35732268  0.38953748  0.40796667
   0.40639779  0.34315184  0.44155852
   0.46367730  0.48020090  0.61706126
   0.53533418  0.62995472  0.38773319
   0.40690368  0.43429422  0.43957619
   0.51449633  0.47920126  0.45953649
   0.58541991  0.54270387  0.58844399
   0.43528336  0.55767544  0.61656294
   0.52040692  0.53944198  0.52020120
Direct configuration=    23
   0.42723186  0.39632233  0.53641853
   0.57465329  0.52059159  0.37061647
   0.66570612  0.66660164  0.59296530
   0.56006759  0.38631519  0.41546949
   0.55672225  0.45348730  0.66445881
   0.73502837  0.55911513  0.62578704
   0.50936490  0.55977501  0.60335512
   0.57398772  0.47566827  0.53020478
   0.53007406  0.40246825  0.52012993
   0.35731008  0.38939968  0.40746690
   0.40638673  0.34367080  0.44323697
   0.46311318  0.48010487  0.61633576
   0.53637281  0.62659403  0.38771709
   0.40833032  0.43492647  0.43958017
   0.51254285  0.47664801  0.46068587
   0.58586137  0.54263566  0.58860057
   0.43619231  0.55715933  0.61638632
   0.52064199  0.53913939  0.51883827
Direct configuration=    24
   0.43094267  0.39968118  0.53203572
   0.57001269  0.52792428  0.37794831
   0.66096595  0.66396955  0.59131666
   0.55750609  0.38952752  0.41439449
   0.55413405  0.45689241  0.65805124
   0.73141154  0.55628168  0.62525553
   0.51240812  0.56029827  0.60816405
   0.57797778  0.47965086  0.53070689
   0.53294877  0.40376940  0.52091017
   0.35727226  0.38898629  0.40596759
   0.40635354  0.34522771  0.44827232
   0.46142085  0.47981677  0.61415925
   0.53948872  0.61651197  0.38766877
   0.41261024  0.43682319  0.43959212
   0.50668241  0.46898826  0.46413401
   0.58718576  0.54243103  0.58907032
   0.43891914  0.55561098  0.61585647
   0.52134723  0.53823161  0.51474949
Direct configuration=    25
   0.43323102  0.40052662  0.53341142
   0.56798883  0.52928038  0.38141403
   0.65909911  0.66285104  0.59070969
   0.55683547  0.39029932  0.41344419
   0.55370664  0.45754020  0.65585723
   0.72988659  0.55517125  0.62502780
   0.51348885  0.56078611  0.60889827
   0.57869443  0.47925664  0.53103722
   0.53474213  0.40513789  0.52189599
   0.35834004  0.38954200  0.40607343
   0.40588659  0.34529081  0.44886019
   0.46059840  0.48027880  0.61326567
   0.54037358  0.61362423  0.38809583
   0.41357875  0.43769665  0.43719147
   0.50421740  0.46723502  0.46527839
   0.58807102  0.54249611  0.58837693
   0.43943645  0.55491778  0.61559506
   0.52141251  0.53869207  0.51382058
Direct configuration=    26
   0.43543169  0.40133967  0.53473442
   0.56604250  0.53058452  0.38474697
   0.65730381  0.66177540  0.59012597
   0.55619054  0.39104154  0.41253030
   0.55329560  0.45816317  0.65374728
   0.72842006  0.55410336  0.62480879
   0.51452818  0.56125526  0.60960436
   0.57938363  0.47887753  0.53135490
   0.53646678  0.40645396  0.52284404
   0.35936691  0.39007642  0.40617522
   0.40543753  0.34535149  0.44942553
   0.45980746  0.48072313  0.61240633
   0.54122455  0.61084714  0.38850652
   0.41451015  0.43853665  0.43488280
   0.50184683  0.46554896  0.46637893
   0.58892237  0.54255869  0.58771011
   0.43993395  0.55425114  0.61534367
   0.52147529  0.53913489  0.51292726
Direct configuration=    27
   0.43785750  0.40146034  0.53710220
   0.56482856  0.52720697  0.38838172
   0.65530839  0.66047549  0.58950498
   0.55564343  0.39138924  0.41140869
   0.55342253  0.45800485  0.65178509
   0.72666776  0.55292159  0.62453378
   0.51502390  0.56190425  0.60902261
   0.57953235  0.47724247  0.53198081
   0.53902938  0.40819134  0.52410095
   0.36092266  0.39134406  0.40650308
   0.40495676  0.34522710  0.44956655
   0.45895318  0.48102126  0.61167232
   0.54083631  0.61202650  0.38982191
   0.41597481  0.43903789  0.43204271
   0.49881642  0.46555423  0.46677843
   0.59009890  0.54295365  0.58626474
   0.44042242  0.55460261  0.61504979
   0.52129255  0.54005908  0.51273303
Direct configuration=    28
   0.44218116  0.40167542  0.54132240
   0.56266489  0.52118699  0.39486014
   0.65175185  0.65815859  0.58839814
   0.55466829  0.39200898  0.40940957
   0.55364876  0.45772268  0.64828778
   0.72354455  0.55081526  0.62404363
   0.51590745  0.56306098  0.60798573
   0.57979740  0.47432822  0.53309640
   0.54359683  0.41128796  0.52634119
   0.36369554  0.39360342  0.40708745
   0.40409985  0.34500540  0.44981790
   0.45743056  0.48155262  0.61036406
   0.54014432  0.61412852  0.39216640
   0.41858536  0.43993129  0.42698066
   0.49341518  0.46556364  0.46749048
   0.59219591  0.54365760  0.58368860
   0.44129305  0.55522906  0.61452601
   0.52096684  0.54170632  0.51238685
Direct configuration=    29
   0.44474432  0.40000321  0.54216656
   0.56076530  0.51733983  0.40043407
   0.64898245  0.65611760  0.58743868
   0.55368479  0.39165854  0.40881333
   0.55406102  0.45676254  0.64610275
   0.72082480  0.54924625  0.62360975
   0.51634613  0.56388629  0.60587481
   0.58228381  0.47676474  0.53427757
   0.54441004  0.40971411  0.52629278
   0.36449934  0.39505132  0.40667402
   0.40405097  0.34503427  0.45072982
   0.45633757  0.48216047  0.61027093
   0.53959573  0.61533076  0.39466111
   0.42271532  0.44049744  0.42575663
   0.48979565  0.46676894  0.46753854
   0.59335079  0.54402254  0.58107785
   0.44229261  0.55730634  0.61419790
   0.52084717  0.54295774  0.51233631
Direct configuration=    30
   0.44658315  0.39880355  0.54277217
   0.55940251  0.51457985  0.40443285
   0.64699566  0.65465338  0.58675036
   0.55297922  0.39140713  0.40838558
   0.55435677  0.45607373  0.64453520
   0.71887362  0.54812063  0.62329847
   0.51666085  0.56447837  0.60436041
   0.58406759  0.47851272  0.53512495
   0.54499345  0.40858501  0.52625804
   0.36507599  0.39609006  0.40637742
   0.40401591  0.34505498  0.45138404
   0.45555345  0.48259655  0.61020412
   0.53920216  0.61619325  0.39645083
   0.42567818  0.44090360  0.42487850
   0.48719897  0.46763363  0.46757302
   0.59417932  0.54428435  0.57920488
   0.44300971  0.55879661  0.61396251
   0.52076132  0.54385552  0.51230005
Direct configuration=    31
   0.44723356  0.39539519  0.54190387
   0.55794831  0.51471902  0.40943400
   0.64445490  0.65264912  0.58567676
   0.55146331  0.38951938  0.40895557
   0.55462582  0.45457743  0.64313267
   0.71609210  0.54672265  0.62291318
   0.51764476  0.56528581  0.60181461
   0.58583389  0.47889452  0.53418009
   0.54634040  0.40880664  0.52498506
   0.36697274  0.39731141  0.40626186
   0.40384006  0.34590496  0.45215868
   0.45470009  0.48408714  0.61041626
   0.53895002  0.61545083  0.39950913
   0.42718949  0.43966768  0.42453762
   0.48688936  0.46988792  0.46926306
   0.59466317  0.54607271  0.57773118
   0.44399639  0.56086686  0.61373247
   0.52074944  0.54480365  0.51164732
Direct configuration=    32
   0.44814728  0.39060700  0.54068404
   0.55590541  0.51491454  0.41645979
   0.64088556  0.64983348  0.58416854
   0.54933372  0.38686740  0.40975632
   0.55500380  0.45247538  0.64116236
   0.71218451  0.54475873  0.62237191
   0.51902701  0.56642013  0.59823818
   0.58831526  0.47943087  0.53285272
   0.54823265  0.40911799  0.52319673
   0.36963734  0.39902721  0.40609952
   0.40359302  0.34709905  0.45324692
   0.45350125  0.48618116  0.61071427
   0.53859580  0.61440785  0.40380554
   0.42931262  0.43793142  0.42405875
   0.48645441  0.47305483  0.47163728
   0.59534290  0.54858505  0.57566088
   0.44538252  0.56377523  0.61340930
   0.52073274  0.54613562  0.51073034
Direct configuration=    33
   0.44969050  0.38793850  0.54020079
   0.55790649  0.51702733  0.41831377
   0.63777056  0.64794718  0.58257156
   0.54651180  0.38383898  0.41092303
   0.55504264  0.45049711  0.63959577
   0.70834578  0.54283965  0.62189538
   0.51939742  0.56801129  0.59642109
   0.58960679  0.47911835  0.53101683
   0.55006491  0.41126588  0.52121764
   0.37056284  0.39885856  0.40508427
   0.40302316  0.34777883  0.45330436
   0.45275172  0.48723347  0.60943745
   0.53823523  0.61244903  0.40895635
   0.43257876  0.43796834  0.42573033
   0.48500094  0.47320063  0.47651533
   0.59558162  0.54966786  0.57326486
   0.44745135  0.56624659  0.61303013
   0.52006530  0.54873535  0.51077446
Direct configuration=    34
   0.45100741  0.38566132  0.53978840
   0.55961412  0.51883029  0.41989588
   0.63511236  0.64633750  0.58120877
   0.54410370  0.38125465  0.41191864
   0.55507579  0.44880894  0.63825890
   0.70506997  0.54120198  0.62148873
   0.51971352  0.56936912  0.59487046
   0.59070892  0.47885166  0.52945017
   0.55162848  0.41309880  0.51952876
   0.37135262  0.39871464  0.40421791
   0.40253687  0.34835892  0.45335338
   0.45211211  0.48813147  0.60834786
   0.53792753  0.61077745  0.41335182
   0.43536595  0.43799984  0.42715678
   0.48376061  0.47332506  0.48067805
   0.59578533  0.55059189  0.57122020
   0.44921680  0.56835555  0.61270656
   0.51949574  0.55095386  0.51081211
Direct configuration=    35
   0.45299094  0.38496457  0.54035355
   0.56192448  0.51888154  0.41988304
   0.63288467  0.64597544  0.57980175
   0.54126326  0.37917161  0.41283394
   0.55494741  0.44743009  0.63676540
   0.70174346  0.53951348  0.62115019
   0.52113967  0.57121904  0.59487379
   0.59195387  0.48009389  0.52863567
   0.55205367  0.41395232  0.51792840
   0.37307882  0.39958345  0.40303709
   0.40231763  0.34791839  0.45333878
   0.45168210  0.48899153  0.60617726
   0.53740012  0.60982575  0.41850493
   0.43609122  0.43730082  0.42803608
   0.48423956  0.47350385  0.48584734
   0.59531394  0.54951781  0.56833702
   0.44996295  0.56932710  0.61257122
   0.51860004  0.55345227  0.51017795
Direct configuration=    36
   0.45726203  0.38346429  0.54157048
   0.56689933  0.51899188  0.41985538
   0.62808785  0.64519582  0.57677204
   0.53514699  0.37468624  0.41480483
   0.55467098  0.44446105  0.63354948
   0.69458056  0.53587766  0.62042122
   0.52421056  0.57520242  0.59488098
   0.59463460  0.48276874  0.52688183
   0.55296922  0.41579018  0.51448238
   0.37679582  0.40145424  0.40049447
   0.40184554  0.34696979  0.45330734
   0.45075616  0.49084347  0.60150334
   0.53626446  0.60777646  0.42960099
   0.43765292  0.43579564  0.42992946
   0.48527088  0.47388885  0.49697827
   0.59429892  0.54720503  0.56212872
   0.45156962  0.57141913  0.61227978
   0.51667136  0.55883204  0.50881242
Direct configuration=    37
   0.45890436  0.38341819  0.54287298
   0.56866251  0.51787372  0.41981527
   0.62603596  0.64543959  0.57522523
   0.53202399  0.37307521  0.41537494
   0.55441241  0.44332717  0.63171578
   0.69118280  0.53421304  0.62019636
   0.52563308  0.57723214  0.59553567
   0.59567240  0.48129638  0.52495924
   0.55356613  0.41649325  0.51368757
   0.37868194  0.40170245  0.39953554
   0.40189951  0.34689362  0.45285806
   0.45074485  0.49149445  0.59855086
   0.53570701  0.60738044  0.43561773
   0.43864338  0.43579226  0.43170325
   0.48599021  0.47409405  0.50089970
   0.59350605  0.54811434  0.56029230
   0.45254305  0.57159637  0.61190874
   0.51577818  0.56118628  0.50750418
Direct configuration=    38
   0.46003712  0.38338639  0.54377135
   0.56987862  0.51710250  0.41978761
   0.62462073  0.64560773  0.57415836
   0.52986998  0.37196404  0.41576815
   0.55423406  0.44254511  0.63045102
   0.68883927  0.53306490  0.62004127
   0.52661423  0.57863208  0.59598723
   0.59638820  0.48028085  0.52363318
   0.55397782  0.41697817  0.51313936
   0.37998284  0.40187364  0.39887415
   0.40193674  0.34684108  0.45254819
   0.45073704  0.49194345  0.59651446
   0.53532252  0.60710729  0.43976764
   0.43932653  0.43578992  0.43292667
   0.48648635  0.47423558  0.50360440
   0.59295918  0.54874152  0.55902568
   0.45321445  0.57171862  0.61165283
   0.51516213  0.56281007  0.50660184
Direct configuration=    39
   0.45932142  0.38358724  0.54465266
   0.56942246  0.51613762  0.42023765
   0.62452928  0.64637684  0.57377939
   0.52921453  0.37208443  0.41538178
   0.55415459  0.44278955  0.62990896
   0.68815034  0.53284139  0.62010625
   0.52659570  0.57893554  0.59648216
   0.59693826  0.47930755  0.52310146
   0.55410770  0.41618089  0.51358611
   0.38045004  0.40140435  0.39899519
   0.40264388  0.34740984  0.45229632
   0.45118242  0.49185649  0.59556268
   0.53570006  0.60793275  0.44036639
   0.43956307  0.43642704  0.43422229
   0.48672439  0.47487050  0.50230542
   0.59265572  0.54940549  0.55874682
   0.45376484  0.57083262  0.61109994
   0.51446912  0.56224282  0.50742193
Direct configuration=    40
   0.45717431  0.38418980  0.54729661
   0.56805399  0.51324297  0.42158776
   0.62425494  0.64868416  0.57264249
   0.52724818  0.37244558  0.41422268
   0.55391619  0.44352290  0.62828277
   0.68608356  0.53217086  0.62030120
   0.52654009  0.57984589  0.59796693
   0.59858843  0.47638767  0.52150629
   0.55449731  0.41378905  0.51492634
   0.38185164  0.39999647  0.39935833
   0.40476529  0.34911614  0.45154070
   0.45251857  0.49159561  0.59270731
   0.53683270  0.61040914  0.44216264
   0.44027270  0.43833838  0.43810913
   0.48743851  0.47677524  0.49840848
   0.59174533  0.55139743  0.55791025
   0.45541601  0.56817460  0.60944128
   0.51239007  0.56054107  0.50988220
Direct configuration=    41
   0.45661679  0.38482475  0.54811572
   0.56699707  0.51259495  0.42249880
   0.62424453  0.64970267  0.57216673
   0.52643110  0.37273993  0.41396506
   0.55376307  0.44394017  0.62760719
   0.68524921  0.53198028  0.62031262
   0.52729407  0.58041726  0.59848520
   0.59952687  0.47655614  0.52169871
   0.55417872  0.41243731  0.51535785
   0.38264139  0.40066574  0.39907895
   0.40632660  0.34911333  0.45216308
   0.45293650  0.49087209  0.59136678
   0.53751285  0.61076974  0.44341766
   0.43953012  0.43867123  0.43890650
   0.48769110  0.47684596  0.49714657
   0.59154033  0.55095595  0.55687150
   0.45554385  0.56738916  0.60870630
   0.51156367  0.56014629  0.51038818
Direct configuration=    42
   0.45494423  0.38672958  0.55057303
   0.56382629  0.51065089  0.42523195
   0.62421328  0.65275822  0.57073946
   0.52397988  0.37362297  0.41319220
   0.55330371  0.44519200  0.62558048
   0.68274614  0.53140855  0.62034688
   0.52955601  0.58213135  0.60004002
   0.60234219  0.47706154  0.52227596
   0.55322294  0.40838211  0.51665238
   0.38501063  0.40267357  0.39824081
   0.41101053  0.34910490  0.45403019
   0.45419028  0.48870154  0.58734520
   0.53955330  0.61185155  0.44718269
   0.43730237  0.43966978  0.44129858
   0.48844885  0.47705811  0.49336085